6
Properties=species:S:1:pos:R:3 Coordinates=T from=T ORCA-job=T opt=T E=T -169.813928828772=T pbc="F F F"
C        0.98845997      -0.14187347      -0.00245772
O        0.34550668      -1.05473735      -0.47981048
N        2.34916480      -0.07794885       0.03147344
H        0.52067612       0.75831762       0.46969768
H        2.85968405       0.06354936      -0.83391089
H        2.86080123      -0.16835684       0.89959733
