
                                 *****************
                                 * O   R   C   A *
                                 *****************

                                            #,                                       
                                            ###                                      
                                            ####                                     
                                            #####                                    
                                            ######                                   
                                           ########,                                 
                                     ,,################,,,,,                         
                               ,,#################################,,                 
                          ,,##########################################,,             
                       ,#########################################, ''#####,          
                    ,#############################################,,   '####,        
                  ,##################################################,,,,####,       
                ,###########''''           ''''###############################       
              ,#####''   ,,,,##########,,,,          '''####'''          '####       
            ,##' ,,,,###########################,,,                        '##       
           ' ,,###''''                  '''############,,,                           
         ,,##''                                '''############,,,,        ,,,,,,###''
      ,#''                                            '''#######################'''  
     '                                                          ''''####''''         
             ,#######,   #######,   ,#######,      ##                                
            ,#'     '#,  ##    ##  ,#'     '#,    #''#        ,####,   ,####,        
            ##       ##  ##   ,#'  ##            #'  '#       #'       #'  '#        
            ##       ##  #######   ##           ,######,      #####,   #    #        
            '#,     ,#'  ##    ##  '#,     ,#' ,#      #,     #,   #   #,  ,#        
             '#######'   ##     ##  '#######'  #'      '#     '####' # '####'        



                #########################################################
                #                        -***-                          #
                #          Department of theory and spectroscopy        #
                #                                                       #
                #                      Frank Neese                      #
                #                                                       #
                #     Directorship, Architecture, Infrastructure        #
                #                    SHARK, DRIVERS                     #
                #        Core code/Algorithms in most modules           #
                #                                                       #
                #        Max Planck Institute fuer Kohlenforschung      #
                #                Kaiser Wilhelm Platz 1                 #
                #                 D-45470 Muelheim/Ruhr                 #
                #                      Germany                          #
                #                                                       #
                #                  All rights reserved                  #
                #                        -***-                          #
                #########################################################


                         Program Version 6.0.1  -  RELEASE   -


 With contributions from (in alphabetic order):
[Max-Planck-Institut fuer Kohlenforschung]                               
  Daniel Aravena         : Magnetic Suceptibility                        
  Michael Atanasov       : Ab Initio Ligand Field Theory (pilot matlab implementation)
  Alexander A. Auer      : GIAO ZORA, VPT2 properties, NMR spectrum      
  Ute Becker             : All parallelization in ORCA, NUMFREQ, NUMCALC 
  Giovanni Bistoni       : ED, misc. LED, open-shell LED, HFLD           
  Martin Brehm           : Molecular dynamics                            
  Dmytro Bykov           : pre 5.0 version of the SCF Hessian            
  Marcos Casanova-Páez   : Triplet and SCS-CIS(D). UHF-(DLPNO)-IP/EA/STEOM-CCSD. UHF-CVS-IP/STEOM-CCSD   
  Vijay G. Chilkuri      : MRCI spin determinant printing, contributions to CSF-ICE 
  Pauline Colinet        : FMM embedding                                 
  Dipayan Datta          : RHF DLPNO-CCSD density                        
  Achintya Kumar Dutta   : EOM-CC, STEOM-CC                              
  Nicolas Foglia         : Exact transition moments, OPA infrastructure, MCD improvements    
  Dmitry Ganyushin       : Spin-Orbit,Spin-Spin,Magnetic field MRCI      
  Miquel Garcia-Rates    : C-PCM and meta-GGA Hessian, CCSD/C-PCM, Gaussian charge scheme 
  Tiago L. C. Gouveia    : GS-ROHF, GS-ROCIS                             
  Yang Guo               : DLPNO-NEVPT2, F12-NEVPT2, CIM, IAO-localization        
  Andreas Hansen         : Spin unrestricted coupled pair/coupled cluster methods 
  Ingolf Harden          : AUTO-CI MPn and infrastructure                
  Benjamin Helmich-Paris : MC-RPA, TRAH-(SCF,CASSCF), AVAS, COSX integrals, SCF dyn. polar. 
  Lee Huntington         : MR-EOM, pCC                                   
  Robert Izsak           : Overlap fitted RIJCOSX, COSX-SCS-MP3, EOM     
  Riya Kayal             : Wick's Theorem for AUTO-CI, AUTO-CI UHF-CCSDT 
  Emily Kempfer          : AUTO-CI, RHF CISDT and CCSDT                  
  Christian Kollmar      : KDIIS, OOCD, Brueckner-CCSD(T), CCSD density, CASPT2, CASPT2-K, improved NEVPT2 
  Axel Koslowski         : Symmetry handling                             
  Simone Kossmann        : meta-GGA functionals, TD-DFT gradient, OOMP2, (MP2 Hessian; deprecated post 5.0) 
  Lucas Lang             : DCDCAS                                        
  Marvin Lechner         : AUTO-CI (C++ implementation), FIC-MRCC        
  Spencer Leger          : CASSCF response                               
  Dagmar Lenk            : GEPOL surface, SMD, ORCA-2-JSON               
  Dimitrios Liakos       : Extrapolation schemes; Compound Job, initial MDCI parallelization 
  Dimitrios Manganas     : Further ROCIS development; embedding schemes. LFT, Crystal Embedding 
  Dimitrios Pantazis     : SARC Basis sets                               
  Anastasios Papadopoulos: AUTO-CI, single reference methods and gradients 
  Taras Petrenko         : pre 6.0 DFT Hessian and TD-DFT gradient, (ASA, deprecated), ECA, 1-Electron XAS/XES, NRVS 
  Peter Pinski           : DLPNO-MP2, DLPNO-MP2 Gradient                 
  Christoph Reimann      : Effective Core Potentials                     
  Marius Retegan         : Local ZFS, SOC                                
  Christoph Riplinger    : Optimizer, TS searches, QM/MM, DLPNO-CCSD(T), (RO)-DLPNO pert. Triples 
  Michael Roemelt        : Original ROCIS implementation                 
  Masaaki Saitow         : Open-shell DLPNO-CCSD energy and density      
  Barbara Sandhoefer     : DKH picture change effects                    
  Kantharuban Sivalingam : CASSCF convergence/infrastructure, NEVPT2 and variants, FIC-MRCI 
  Bernardo de Souza      : ESD, SOC TD-DFT                               
  Georgi L. Stoychev     : AutoAux, RI-MP2 NMR, DLPNO-MP2 response, X2C  
  Van Anh Tran           : RI-MP2 g-tensors                              
  Willem Van den Heuvel  : Paramagnetic NMR                              
  Zikuan Wang            : NOTCH, Electric field optimization            
  Frank Wennmohs         : Technical directorship and infrastructure     
  Hang Xu                : AUTO-CI-Response properties                   
                                                                         
[FACCTs GmbH]                                                            
  Markus Bursch, Miquel Garcia-Rates, Christoph Riplinger, Bernardo de Souza, Georgi L. Stoychev 
                                                                 
  APM, Basis sets (HGBS, AHGBS, def-TZVP (Ac-Lr), def2-XVPD (La-Lu)), CI-OPT, improved COSX, DLPNO-Multilevel,           
  DOCKER, DRACO, updates on ESD, GOAT, IRC, LR-CPCM, MBIS, meta-GGA TD-DFT gradient, ML-optimized integration grids, 
  MM, NACMEs, nearIR, NEB, NEB-TS, NL-DFT gradient (VV10), 2- and 3-layer-ONIOM, interface openCOSMO-RS, QMMM,   
  Crystal-QMMM, SF, symmetry and pop. for TD-DFT, r2SCAN hybrids, SOLVATOR                                   
                                                                         
[Other institutions]                                                     
  V. Asgeirsson          : NEB                                           
  Christoph Bannwarth    : sTDA-DFT, sTD-DFT, PBEh-3c, B97-3c, D3        
  Sebastian Ehlert       : rSCAN, r2SCAN, r2SCAN-3c, D4, dhf basis sets  
  Marvin Friede          : D4 for Fr, Ra, Ac-Lr                          
  Lars Goerigk           : TD-DFT with DH, B97 family of functionals     
  Stefan Grimme          : VdW corrections, initial TS optimization, DFT functionals, gCP, sTDA/sTD-DF 
  Waldemar Hujo          : DFT-NL                                        
  H. Jonsson             : NEB                                           
  Holger Kruse           : gCP                                           
  Marcel Mueller         : wB97X-3c, vDZP basis set                      
  Hagen Neugebauer       : wr2SCAN                                       
  Tobias Risthaus        : range-separated hybrid DFT                    
  Lukas Wittmann         : regularized MP2, r2SCAN double-hybrids, wr2SCAN        
                                                                         
We gratefully acknowledge several colleagues who have allowed us to      
interface, adapt or use parts of their codes:                            
  Ed Valeev, F. Pavosevic, A. Kumar             : LibInt (2-el integral package), F12 methods 
  Garnet Chan, S. Sharma, J. Yang, R. Olivares  : DMRG                   
  Ulf Ekstrom                                   : XCFun DFT Library      
  Mihaly Kallay                                 : mrcc  (arbitrary order and MRCC methods)
  Frank Weinhold                                : gennbo (NPA and NBO analysis)           
  Simon Mueller                                 : openCOSMO-RS                            
  Christopher J. Cramer and Donald G. Truhlar   : smd solvation model                     
  S Lehtola, MJT Oliveira, MAL Marques          : LibXC Library                           
  Liviu Ungur et al                             : ANISO software                          


 Your calculation uses the libint2 library for the computation of 2-el integrals
 For citations please refer to: http://libint.valeyev.net

 Your ORCA version has been built with support for libXC version: 6.2.2
 For citations please refer to: https://libxc.gitlab.io

 This ORCA versions uses:
   CBLAS   interface :  Fast vector & matrix operations
   LAPACKE interface :  Fast linear algebra routines
   SCALAPACK package :  Parallel linear algebra routines
   Shared memory     :  Shared parallel matrices
   BLAS/LAPACK       :  OpenBLAS 0.3.27  USE64BITINT DYNAMIC_ARCH NO_AFFINITY Haswell SINGLE_THREADED
        Core in use  :  Haswell
   Copyright (c) 2011-2014, The OpenBLAS Project




***************************************
The coordinates will be read from file: dihedral.xyz
***************************************


================================================================================

----- Orbital basis set information -----
Your calculation utilizes the basis: cc-pVDZ 
       H, B-Ne : Obtained from the ccRepo (grant-hill.group.shef.ac.uk/ccrepo) Feb. 2017
                 T. H. Dunning, Jr., J. Chem. Phys. 90, 1007 (1989)
            He : Obtained from the ccRepo (grant-hill.group.shef.ac.uk/ccrepo) Feb. 2017
                 D. E. Woon, T. H. Dunning, Jr., J. Chem. Phys. 100, 2975 (1994)
  Li-Be, Na-Mg : Obtained from the ccRepo (grant-hill.group.shef.ac.uk/ccrepo) Feb. 2017
                 B. P. Prascher, D. E. Woon, K. A. Peterson, T. H. Dunning, Jr., A. K. Wilson, Theor. Chem. Acc. 128, 69 (2011)
         Al-Ar : Obtained from the ccRepo (grant-hill.group.shef.ac.uk/ccrepo) Feb. 2017
                 D. E. Woon, T. H. Dunning, Jr., J. Chem. Phys. 98, 1358 (1993)
            Ca : Obtained from the Peterson Research Group Website (tyr0.chem.wsu.edu/~kipeters) Feb. 2017
                 J. Koput, K. A. Peterson, J. Phys. Chem. 106, 9595 (2002)
         Sc-Zn : Obtained from the ccRepo (grant-hill.group.shef.ac.uk/ccrepo) Feb. 2017
                 N. B. Balabanov, K. A. Peterson, J. Chem. Phys. 123, 064107 (2005)
                 N. B. Balabanov, K. A. Peterson, J. Chem. Phys. 125, 074110 (2006)
         Ga-Kr : Obtained from the ccRepo (grant-hill.group.shef.ac.uk/ccrepo) Feb. 2017
                 A. K. Wilson, D. E. Woon, K. A. Peterson, T. H. Dunning, Jr., J. Chem. Phys. 110, 7667 (1999)

----- AuxJ basis set information -----
Your calculation utilizes the auxiliary basis: def2/J
   F. Weigend, Phys. Chem. Chem. Phys. 8, 1057 (2006).

================================================================================
                                        WARNINGS
                       Please study these warnings very carefully!
================================================================================


================================================================================
                                       INPUT FILE
================================================================================
NAME = nbo.com
|  1> ! B3LYP cc-pVDZ def2/J RIJCOSX NBO
|  2> 
|  3> * xyzfile 0 1 dihedral.xyz
|  4> 
|  5>                          ****END OF INPUT****
================================================================================

                       ****************************
                       * Single Point Calculation *
                       ****************************

---------------------------------
CARTESIAN COORDINATES (ANGSTROEM)
---------------------------------
  C      0.988460   -0.141873   -0.002458
  O      0.345507   -1.054737   -0.479810
  N      2.349165   -0.077949    0.031473
  H      0.520676    0.758318    0.469698
  H      2.887649   -0.650428   -0.610277
  H      2.833561    0.527114    0.681737

----------------------------
CARTESIAN COORDINATES (A.U.)
----------------------------
  NO LB      ZA    FRAG     MASS         X           Y           Z
   0 C     6.0000    0    12.011    1.867919   -0.268102   -0.004644
   1 O     8.0000    0    15.999    0.652913   -1.993165   -0.906710
   2 N     7.0000    0    14.007    4.439278   -0.147302    0.059476
   3 H     1.0000    0     1.008    0.983935    1.433013    0.887600
   4 H     1.0000    0     1.008    5.456867   -1.229131   -1.153257
   5 H     1.0000    0     1.008    5.354655    0.996101    1.288297

--------------------------------
INTERNAL COORDINATES (ANGSTROEM)
--------------------------------
 C      0   0   0     0.000000000000     0.00000000     0.00000000
 O      1   0   0     1.214320820051     0.00000000     0.00000000
 N      1   2   0     1.362628091244   125.01449517     0.00000000
 H      1   2   3     1.118971157173   123.31850457   180.10054251
 H      3   1   2     1.014663330042   119.19186818    20.05551350
 H      3   1   2     1.011723551309   121.47783729   200.05381302

---------------------------
INTERNAL COORDINATES (A.U.)
---------------------------
 C      0   0   0     0.000000000000     0.00000000     0.00000000
 O      1   0   0     2.294733788616     0.00000000     0.00000000
 N      1   2   0     2.574993914838   125.01449517     0.00000000
 H      1   2   3     2.114549038814   123.31850457   180.10054251
 H      3   1   2     1.917435811912   119.19186818    20.05551350
 H      3   1   2     1.911880435213   121.47783729   200.05381302

---------------------
BASIS SET INFORMATION
---------------------
There are 4 groups of distinct atoms

 Group   1 Type C   : 17s4p1d contracted to 3s2p1d pattern {881/31/1}
 Group   2 Type O   : 17s4p1d contracted to 3s2p1d pattern {881/31/1}
 Group   3 Type N   : 17s4p1d contracted to 3s2p1d pattern {881/31/1}
 Group   4 Type H   : 4s1p contracted to 2s1p pattern {31/1}

Atom   0C    basis set group =>   1
Atom   1O    basis set group =>   2
Atom   2N    basis set group =>   3
Atom   3H    basis set group =>   4
Atom   4H    basis set group =>   4
Atom   5H    basis set group =>   4
---------------------------------
AUXILIARY/J BASIS SET INFORMATION
---------------------------------
There are 4 groups of distinct atoms

 Group   1 Type C   : 12s5p4d2f1g contracted to 6s4p3d1f1g pattern {711111/2111/211/2/1}
 Group   2 Type O   : 12s5p4d2f1g contracted to 6s4p3d1f1g pattern {711111/2111/211/2/1}
 Group   3 Type N   : 12s5p4d2f1g contracted to 6s4p3d1f1g pattern {711111/2111/211/2/1}
 Group   4 Type H   : 5s2p1d contracted to 3s1p1d pattern {311/2/1}

Atom   0C    basis set group =>   1
Atom   1O    basis set group =>   2
Atom   2N    basis set group =>   3
Atom   3H    basis set group =>   4
Atom   4H    basis set group =>   4
Atom   5H    basis set group =>   4
------------------------------------------------------------------------------
                             ORCA STARTUP CALCULATIONS
                           -- RI-GTO INTEGRALS CHOSEN --
------------------------------------------------------------------------------
------------------------------------------------------------------------------
                   ___                                                        
                  /   \      - P O W E R E D   B Y -                         
                 /     \                                                     
                 |  |  |   _    _      __       _____    __    __             
                 |  |  |  | |  | |    /  \     |  _  \  |  |  /  |          
                  \  \/   | |  | |   /    \    | | | |  |  | /  /          
                 / \  \   | |__| |  /  /\  \   | |_| |  |  |/  /          
                |  |  |   |  __  | /  /__\  \  |    /   |      \           
                |  |  |   | |  | | |   __   |  |    \   |  |\   \          
                \     /   | |  | | |  |  |  |  | |\  \  |  | \   \       
                 \___/    |_|  |_| |__|  |__|  |_| \__\ |__|  \__/        
                                                                              
                      - O R C A' S   B I G   F R I E N D -                    
                                      &                                       
                       - I N T E G R A L  F E E D E R -                       
                                                                              
 v1 FN, 2020, v2 2021, v3 2022-2024                                           
------------------------------------------------------------------------------


----------------------
SHARK INTEGRAL PACKAGE
----------------------

Number of atoms                             ...      6
Number of basis functions                   ...     75
Number of shells                            ...     45
Maximum angular momentum                    ...      2
Integral batch strategy                     ... SHARK/LIBINT Hybrid
RI-J (if used) integral strategy            ... SPLIT-RIJ (Revised 2003 algorithm where possible)
Printlevel                                  ...      1
Contraction scheme used                     ... PARTIAL GENERAL contraction
Prescreening option                         ... SCHWARTZ
   Thresh                                   ... 1.000e-10
   Tcut                                     ... 1.000e-11
   Tpresel                                  ... 1.000e-11 
Coulomb Range Separation                    ... NOT USED
Exchange Range Separation                   ... NOT USED
Multipole approximations                    ... NOT USED
Finite Nucleus Model                        ... NOT USED
CABS basis                                  ... NOT available
Auxiliary Coulomb fitting basis             ... AVAILABLE
   # of basis functions in Aux-J            ...    180
   # of shells in Aux-J                     ...     60
   Maximum angular momentum in Aux-J        ...      4
Auxiliary J/K fitting basis                 ... NOT available
Auxiliary Correlation fitting basis         ... NOT available
Auxiliary 'external' fitting basis          ... NOT available

Checking pre-screening integrals            ... done (  0.0 sec) Dimension = 45
Save PGC pre-screening integrals            ... done (  0.0 sec) Dimension = 45
Calculate PGC overlap integrals             ... done (  0.0 sec) Dimension = 27
Calculating pre-screening integrals (ORCA)  ... done (  0.1 sec) Dimension = 27
Check shell pair data                       ... done (  0.0 sec)
Shell pair information
Shell pair cut-off parameter TPreSel        ...   1.0e-11
Total number of shell pairs                 ...      1035
Shell pairs after pre-screening             ...       905
Total number of primitive shell pairs       ...      1671
Primitive shell pairs kept                  ...      1386
          la=0 lb=0:    435 shell pairs
          la=1 lb=0:    293 shell pairs
          la=1 lb=1:     45 shell pairs
          la=2 lb=0:     99 shell pairs
          la=2 lb=1:     27 shell pairs
          la=2 lb=2:      6 shell pairs

Calculating one electron integrals          ... done (  0.0 sec)
Calculating RI/J V-Matrix + Cholesky decomp.... done (  0.0 sec)
Calculating Nuclear repulsion               ... done (  0.0 sec) ENN=     70.953516514968 Eh

Diagonalization of the overlap matrix:
Smallest eigenvalue                        ... 7.958e-03
Time for diagonalization                   ...    0.010 sec
Threshold for overlap eigenvalues          ... 1.000e-07
Number of eigenvalues below threshold      ... 0
Time for construction of square roots      ...    0.000 sec
Total time needed                          ...    0.011 sec

-------------------
DFT GRID GENERATION
-------------------

General Integration Accuracy     IntAcc      ... 4.388
Radial Grid Type                 RadialGrid  ... OptM3 with GC (2021)
Angular Grid (max. ang.)         AngularGrid ... 4 (Lebedev-302)
Angular grid pruning method      GridPruning ... 4 (adaptive)
Weight generation scheme         WeightScheme... mBecke (2022)
Basis function cutoff            BFCut       ... 1.0000e-10
Integration weight cutoff        WCut        ... 1.0000e-14
Partially contracted basis set               ... off
Rotationally invariant grid construction     ... off
Angular grids for H and He will be reduced by one unit

Total number of grid points                  ...    28134
Total number of batches                      ...      442
Average number of points per batch           ...       63
Average number of grid points per atom       ...     4689

---------------------
SHARK GRID GENERATION
---------------------

General Integration Accuracy     IntAcc      ... 4.388
Radial Grid Type                 RadialGrid  ... OptM3 with GC (2021)
Angular Grid (max. ang.)         AngularGrid ... 4 (Lebedev-302)
Angular grid pruning method      GridPruning ... 4 (adaptive)
Weight generation scheme         WeightScheme... mBecke (2022)
Basis function cutoff            BFCut       ... 1.0000e-10
Integration weight cutoff        WCut        ... 1.0000e-14
Partially contracted basis set               ... off
Rotationally invariant grid construction     ... off
Angular grids for H and He will be reduced by one unit
Steep s-basis detected: some atoms will have their radial
                        grid points doubled.

Total number of grid points                  ...    46719
Total number of batches                      ...      733
Average number of points per batch           ...       63
Average number of grid points per atom       ...     7786

--------------------
COSX GRID GENERATION
--------------------

GRIDX 1
-------
General Integration Accuracy     IntAcc      ... 3.816
Radial Grid Type                 RadialGrid  ... OptM3 with GC (2021)
Angular Grid (max. ang.)         AngularGrid ... 1 (Lebedev-50)
Angular grid pruning method      GridPruning ... 4 (adaptive)
Weight generation scheme         WeightScheme... mBecke (2022)
Basis function cutoff            BFCut       ... 1.0000e-10
Integration weight cutoff        WCut        ... 1.0000e-14
Partially contracted basis set               ... on
Rotationally invariant grid construction     ... off
Angular grids for H and He will be reduced by one unit

Total number of grid points                  ...     3597
Total number of batches                      ...       32
Average number of points per batch           ...      112
Average number of grid points per atom       ...      600
UseSFitting                                  ... on

GRIDX 2
-------
General Integration Accuracy     IntAcc      ... 4.020
Radial Grid Type                 RadialGrid  ... OptM3 with GC (2021)
Angular Grid (max. ang.)         AngularGrid ... 2 (Lebedev-110)
Angular grid pruning method      GridPruning ... 4 (adaptive)
Weight generation scheme         WeightScheme... mBecke (2022)
Basis function cutoff            BFCut       ... 1.0000e-10
Integration weight cutoff        WCut        ... 1.0000e-14
Partially contracted basis set               ... on
Rotationally invariant grid construction     ... off
Angular grids for H and He will be reduced by one unit

Total number of grid points                  ...     7955
Total number of batches                      ...       65
Average number of points per batch           ...      122
Average number of grid points per atom       ...     1326
UseSFitting                                  ... on

GRIDX 3
-------
General Integration Accuracy     IntAcc      ... 4.338
Radial Grid Type                 RadialGrid  ... OptM3 with GC (2021)
Angular Grid (max. ang.)         AngularGrid ... 3 (Lebedev-194)
Angular grid pruning method      GridPruning ... 4 (adaptive)
Weight generation scheme         WeightScheme... mBecke (2022)
Basis function cutoff            BFCut       ... 1.0000e-10
Integration weight cutoff        WCut        ... 1.0000e-14
Partially contracted basis set               ... on
Rotationally invariant grid construction     ... off
Angular grids for H and He will be reduced by one unit

Total number of grid points                  ...    17631
Total number of batches                      ...      140
Average number of points per batch           ...      125
Average number of grid points per atom       ...     2938
UseSFitting                                  ... on
Initializing property integral containers    ... done (  0.0 sec)

SHARK setup successfully completed in   1.0 seconds

Maximum memory used throughout the entire STARTUP-calculation: 19.5 MB
-------------------------------------------------------------------------------
                                 ORCA GUESS
                   Start orbitals & Density for SCF / CASSCF
-------------------------------------------------------------------------------

------------
SCF SETTINGS
------------
Hamiltonian:
 Density Functional     Method          .... DFT(GTOs)
 Exchange Functional    Exchange        .... B88
   X-Alpha parameter    XAlpha          ....  0.666667
   Becke's b parameter  XBeta           ....  0.004200
 Correlation Functional Correlation     .... LYP
 LDA part of GGA corr.  LDAOpt          .... VWN-5
 Gradients option       PostSCFGGA      .... off
 Hybrid DFT is turned on
   Fraction HF Exchange ScalHFX         ....  0.200000
   Scaling of DF-GGA-X  ScalDFX         ....  0.720000
   Scaling of DF-GGA-C  ScalDFC         ....  0.810000
   Scaling of DF-LDA-C  ScalLDAC        ....  1.000000
   Perturbative correction              ....  0.000000
   NL short-range parameter             ....  4.800000
 RI-approximation to the Coulomb term is turned on
   Number of AuxJ basis functions       .... 180
   RIJ-COSX (HFX calculated with COS-X)).... on


General Settings:
 Integral files         IntName         .... nbo
 Hartree-Fock type      HFTyp           .... RHF
 Total Charge           Charge          ....    0
 Multiplicity           Mult            ....    1
 Number of Electrons    NEL             ....   24
 Basis Dimension        Dim             ....   57
 Nuclear Repulsion      ENuc            ....     70.9535165150 Eh

Convergence Acceleration:
 AO-DIIS                CNVDIIS         .... on
   Start iteration      DIISMaxIt       ....    12
   Startup error        DIISStart       ....  0.200000
   # of expansion vecs  DIISMaxEq       ....     5
   Bias factor          DIISBfac        ....   1.050
   Max. coefficient     DIISMaxC        ....  10.000
 MO-DIIS                CNVKDIIS        .... off
 Trust-Rad. Augm. Hess. CNVTRAH         .... auto
   Auto Start mean grad. ratio tolernc. ....  1.125000
   Auto Start start iteration           ....    50
   Auto Start num. interpolation iter.  ....    10
   Max. Number of Micro iterations      ....    24
   Max. Number of Macro iterations      .... Maxiter - #DIIS iter
   Number of Davidson start vectors     ....     2
   Converg. threshold    (grad. norm)   ....   5.000e-05
   Grad. Scal. Fac. for Micro threshold ....   0.100
   Minimum threshold for Micro iter.    ....   1.000e-02
   NR start threshold (gradient norm)   ....   1.000e-04
   Initial trust radius                 ....   0.400
   Minimum AH scaling param. (alpha)    ....   1.000
   Maximum AH scaling param. (alpha)    .... 1000.000
   Quad. conv. algorithm                .... NR
   White noise on init. David. guess    .... on
   Maximum white noise                  ....   0.010
   Pseudo random numbers                .... off
   Inactive MOs                         .... canonical
   Orbital update algorithm             .... Taylor
   Preconditioner                       .... Diag
   Full preconditioner red. dimension   ....   250
 SOSCF                  CNVSOSCF        .... on
   Start iteration      SOSCFMaxIt      ....   150
   Startup grad/error   SOSCFStart      ....  0.003300
   Hessian update       SOSCFHessUp     .... L-BFGS
 Level Shifting         CNVShift        .... on
   Level shift para.    LevelShift      ....    0.2500
   Turn off err/grad.   ShiftErr        ....    0.0010
 Zerner damping         CNVZerner       .... off
 Static damping         CNVDamp         .... on
   Fraction old density DampFac         ....    0.7000
   Max. Damping (<1)    DampMax         ....    0.9800
   Min. Damping (>=0)   DampMin         ....    0.0000
   Turn off err/grad.   DampErr         ....    0.1000

SCF Procedure:
 Maximum # iterations   MaxIter         ....   125
 SCF integral mode      SCFMode         .... Direct
   Integral package                     .... SHARK and LIBINT hybrid scheme
 Reset frequency        DirectResetFreq ....    20
 Integral Threshold     Thresh          ....  1.000e-10 Eh
 Primitive CutOff       TCut            ....  1.000e-11 Eh

Convergence Tolerance:
 Convergence Check Mode ConvCheckMode   .... Total+1el-Energy
 Convergence forced     ConvForced      .... 0
 Energy Change          TolE            ....  1.000e-06 Eh
 1-El. energy change                    ....  1.000e-03 Eh
 Orbital Gradient       TolG            ....  5.000e-05
 Orbital Rotation angle TolX            ....  5.000e-05
 DIIS Error             TolErr          ....  1.000e-06

------------------------------
INITIAL GUESS: MODEL POTENTIAL
------------------------------
Loading Hartree-Fock densities                     ... done
Calculating cut-offs                               ... done
Initializing the effective Hamiltonian             ... done
Setting up the integral package (SHARK)            ... done
Starting the Coulomb interaction                   ... done (   0.0 sec)
Making the grid                                    ... done (   0.0 sec)
Mapping shells                                     ... done
Starting the XC term evaluation                    ... done (   0.0 sec)
  promolecular density results
     # of electrons  =     23.998748040
     EX              =    -20.785232631
     EC              =     -0.816898819
     EX+EC           =    -21.602131450
Transforming the Hamiltonian                       ... done (   0.0 sec)
Diagonalizing the Hamiltonian                      ... done (   0.0 sec)
Back transforming the eigenvectors                 ... done (   0.0 sec)
Now organizing SCF variables                       ... done
                      ------------------
                      INITIAL GUESS DONE (   0.1 sec)
                      ------------------
             **** ENERGY FILE WAS UPDATED (nbo.en.tmp) ****
Finished Guess after   0.2 sec
Maximum memory used throughout the entire GUESS-calculation: 7.5 MB

-------------------------------------------------------------------------------------------
                                      ORCA LEAN-SCF
                              memory conserving SCF solver
-------------------------------------------------------------------------------------------

----------------------------------------D-I-I-S--------------------------------------------
Iteration    Energy (Eh)           Delta-E    RMSDP     MaxDP     DIISErr   Damp  Time(sec)
-------------------------------------------------------------------------------------------
               ***  Starting incremental Fock matrix formation  ***
    1    -169.6528439187130743     0.00e+00  7.71e-03  9.85e-02  2.76e-01  0.700   0.5
    2    -169.7304255462650815    -7.76e-02  4.81e-03  5.54e-02  1.14e-01  0.700   0.3
                               ***Turning on AO-DIIS***
    3    -169.7556619900474857    -2.52e-02  1.57e-03  1.76e-02  4.37e-02  0.700   0.3
    4    -169.7720244249223072    -1.64e-02  2.09e-03  1.85e-02  1.67e-02  0.000   0.2
    5    -169.8094981221578053    -3.75e-02  7.21e-04  7.82e-03  9.52e-03  0.000   0.2
                              *** Initializing SOSCF ***
---------------------------------------S-O-S-C-F--------------------------------------
Iteration    Energy (Eh)           Delta-E    RMSDP     MaxDP     MaxGrad    Time(sec)
--------------------------------------------------------------------------------------
    6    -169.8097483406791639    -2.50e-04  2.41e-04  2.75e-03  1.86e-03     0.2
               *** Restarting incremental Fock matrix formation ***
    7    -169.8097612643047682    -1.29e-05  2.15e-04  2.34e-03  5.66e-04     0.4
    8    -169.8097631138216741    -1.85e-06  6.91e-05  8.51e-04  4.35e-04     0.3
    9    -169.8097640301112392    -9.16e-07  5.28e-05  5.39e-04  2.46e-04     0.3
                 **** Energy Check signals convergence ****

               *****************************************************
               *                     SUCCESS                       *
               *           SCF CONVERGED AFTER   9 CYCLES          *
               *****************************************************

Recomputing exchange energy using gridx3       ... done (    0.511 sec)
Old exchange energy                            :     -4.216281033 Eh
New exchange energy                            :     -4.216295046 Eh
Exchange energy change after final integration :     -0.000014013 Eh
Total energy after final integration           :   -169.809778043 Eh
             **** ENERGY FILE WAS UPDATED (nbo.en.tmp) ****

----------------
TOTAL SCF ENERGY
----------------

Total Energy       :       -169.80977804333600 Eh           -4620.75898 eV

Components:
Nuclear Repulsion  :         70.95351651496836 Eh            1930.74334 eV
Electronic Energy  :       -240.76328054507960 Eh           -6551.50194 eV
One Electron Energy:       -371.50946408993968 Eh          -10109.28646 eV
Two Electron Energy:        130.74618354486009 Eh            3557.78453 eV

Virial components:
Potential Energy   :       -338.63754411146471 Eh           -9214.79605 eV
Kinetic Energy     :        168.82776606812871 Eh            4594.03707 eV
Virial Ratio       :          2.00581664970211

DFT components:
N(Alpha)           :       12.000001037847 electrons
N(Beta)            :       12.000001037847 electrons
N(Total)           :       24.000002075695 electrons
E(X)               :      -16.781705529613 Eh       
E(C)               :       -0.970084306044 Eh       
E(XC)              :      -17.751789835657 Eh       

---------------
SCF CONVERGENCE
---------------

  Last Energy change         ...    9.1629e-07  Tolerance :   1.0000e-06
  Last MAX-Density change    ...    5.3871e-04  Tolerance :   1.0000e-05
  Last RMS-Density change    ...    5.2828e-05  Tolerance :   1.0000e-06
  Last DIIS Error            ...    1.8586e-03  Tolerance :   1.0000e-06
  Last Orbital Gradient      ...    2.4587e-04  Tolerance :   5.0000e-05
  Last Orbital Rotation      ...    3.1922e-04  Tolerance :   5.0000e-05


----------------
ORBITAL ENERGIES
----------------

  NO   OCC          E(Eh)            E(eV) 
   0   2.0000     -19.107240      -519.9344 
   1   2.0000     -14.352025      -390.5385 
   2   2.0000     -10.284618      -279.8587 
   3   2.0000      -1.030806       -28.0497 
   4   2.0000      -0.902891       -24.5689 
   5   2.0000      -0.618557       -16.8318 
   6   2.0000      -0.548102       -14.9146 
   7   2.0000      -0.475505       -12.9392 
   8   2.0000      -0.414935       -11.2909 
   9   2.0000      -0.388554       -10.5731 
  10   2.0000      -0.268268        -7.2999 
  11   2.0000      -0.251493        -6.8435 
  12   0.0000       0.024300         0.6612 
  13   0.0000       0.051647         1.4054 
  14   0.0000       0.083574         2.2742 
  15   0.0000       0.133538         3.6338 
  16   0.0000       0.255414         6.9502 
  17   0.0000       0.340954         9.2778 
  18   0.0000       0.466434        12.6923 
  19   0.0000       0.475394        12.9361 
  20   0.0000       0.496945        13.5225 
  21   0.0000       0.515143        14.0177 
  22   0.0000       0.641659        17.4604 
*Only the first 10 virtual orbitals were printed.

                    ********************************
                    * MULLIKEN POPULATION ANALYSIS *
                    ********************************

-----------------------
MULLIKEN ATOMIC CHARGES
-----------------------
   0 C :    0.165031
   1 O :   -0.250248
   2 N :   -0.096845
   3 H :   -0.018058
   4 H :    0.102328
   5 H :    0.097793
Sum of atomic charges:   -0.0000000

--------------------------------
MULLIKEN REDUCED ORBITAL CHARGES
--------------------------------
  0 C s       :     3.035522  s :     3.035522
      pz      :     0.856879  p :     2.614173
      px      :     0.864584
      py      :     0.892710
      dz2     :     0.016665  d :     0.185274
      dxz     :     0.033340
      dyz     :     0.021551
      dx2y2   :     0.063666
      dxy     :     0.050051

  1 O s       :     3.741886  s :     3.741886
      pz      :     1.406050  p :     4.489990
      px      :     1.648247
      py      :     1.435693
      dz2     :     0.002732  d :     0.018372
      dxz     :     0.002541
      dyz     :     0.004054
      dx2y2   :     0.003749
      dxy     :     0.005297

  2 N s       :     3.310066  s :     3.310066
      pz      :     1.321397  p :     3.768446
      px      :     1.058163
      py      :     1.388886
      dz2     :     0.001433  d :     0.018334
      dxz     :     0.005950
      dyz     :     0.001451
      dx2y2   :     0.003902
      dxy     :     0.005597

  3 H s       :     0.993000  s :     0.993000
      pz      :     0.005995  p :     0.025058
      px      :     0.005801
      py      :     0.013263

  4 H s       :     0.843225  s :     0.843225
      pz      :     0.020699  p :     0.054447
      px      :     0.014279
      py      :     0.019470

  5 H s       :     0.846272  s :     0.846272
      pz      :     0.021424  p :     0.055935
      px      :     0.013869
      py      :     0.020642



                     *******************************
                     * LOEWDIN POPULATION ANALYSIS *
                     *******************************

----------------------
LOEWDIN ATOMIC CHARGES
----------------------
   0 C :   -0.111610
   1 O :   -0.067795
   2 N :    0.075643
   3 H :   -0.012145
   4 H :    0.057966
   5 H :    0.057940

-------------------------------
LOEWDIN REDUCED ORBITAL CHARGES
-------------------------------
  0 C s       :     2.847303  s :     2.847303
      pz      :     0.859959  p :     2.792283
      px      :     0.959102
      py      :     0.973221
      dz2     :     0.040735  d :     0.472024
      dxz     :     0.076969
      dyz     :     0.055882
      dx2y2   :     0.169996
      dxy     :     0.128442

  1 O s       :     3.499422  s :     3.499422
      pz      :     1.402167  p :     4.536758
      px      :     1.642123
      py      :     1.492468
      dz2     :     0.003859  d :     0.031614
      dxz     :     0.004139
      dyz     :     0.007193
      dx2y2   :     0.006095
      dxy     :     0.010328

  2 N s       :     2.998116  s :     2.998116
      pz      :     1.332337  p :     3.862696
      px      :     1.148510
      py      :     1.381849
      dz2     :     0.005373  d :     0.063545
      dxz     :     0.019108
      dyz     :     0.007128
      dx2y2   :     0.014155
      dxy     :     0.017781

  3 H s       :     0.938944  s :     0.938944
      pz      :     0.018070  p :     0.073201
      px      :     0.016853
      py      :     0.038278

  4 H s       :     0.801917  s :     0.801917
      pz      :     0.053153  p :     0.140116
      px      :     0.034467
      py      :     0.052496

  5 H s       :     0.800524  s :     0.800524
      pz      :     0.054816  p :     0.141536
      px      :     0.032307
      py      :     0.054414



                      *****************************
                      * MAYER POPULATION ANALYSIS *
                      *****************************

  NA   - Mulliken gross atomic population
  ZA   - Total nuclear charge
  QA   - Mulliken gross atomic charge
  VA   - Mayer's total valence
  BVA  - Mayer's bonded valence
  FA   - Mayer's free valence

  ATOM       NA         ZA         QA         VA         BVA        FA
  0 C      5.8350     6.0000     0.1650     4.3639     4.3639    -0.0000
  1 O      8.2502     8.0000    -0.2502     2.3248     2.3248     0.0000
  2 N      7.0968     7.0000    -0.0968     3.2959     3.2959    -0.0000
  3 H      1.0181     1.0000    -0.0181     0.9689     0.9689    -0.0000
  4 H      0.8977     1.0000     0.1023     1.0265     1.0265    -0.0000
  5 H      0.9022     1.0000     0.0978     1.0139     1.0139    -0.0000

  Mayer bond orders larger than 0.100000
B(  0-C ,  1-O ) :   2.1376 B(  0-C ,  2-N ) :   1.2742 B(  0-C ,  3-H ) :   0.9120 
B(  1-O ,  2-N ) :   0.1010 B(  2-N ,  4-H ) :   0.9621 B(  2-N ,  5-H ) :   0.9678 


Now starting NBO....

 *********************************** NBO 7.0 ***********************************
             N A T U R A L   A T O M I C   O R B I T A L   A N D
          N A T U R A L   B O N D   O R B I T A L   A N A L Y S I S
 **************************** Suman Saurav (S102030) ***************************
  (c) Copyright 1996-2020 Board of Regents of the University of Wisconsin System
      on behalf of the Theoretical Chemistry Institute.  All rights reserved.

          Cite this program [NBO 7.0.9 (21-May-2020)] as:

          NBO 7.0.  E. D. Glendening, J. K. Badenhoop, A. E. Reed,
          J. E. Carpenter, J. A. Bohmann, C. M. Morales, P. Karafiloglou,
          C. R. Landis, and F. Weinhold, Theoretical Chemistry Institute,
          University of Wisconsin, Madison, WI (2018)

       /NPA    / : Natural Population Analysis
       /NBO    / : Natural Bond Orbital Analysis
       /AONBO  / : Checkpoint the AO to NBO transformation
       /ARCHIVE/ : Write the archive file to lfn47

 Job title: ORCA Job: nbo


 NATURAL POPULATIONS:  Natural atomic orbital occupancies

  NAO Atom No lang   Type(AO)    Occupancy      Energy
 -------------------------------------------------------
   1    C  1  s      Cor( 1s)     1.99998     -10.28445
   2    C  1  s      Val( 2s)     0.87107      -0.10885
   3    C  1  s      Ryd( 3s)     0.00970       0.67973
   4    C  1  px     Val( 2p)     0.81314       0.03867
   5    C  1  px     Ryd( 3p)     0.00935       0.47091
   6    C  1  py     Val( 2p)     0.89877      -0.00930
   7    C  1  py     Ryd( 3p)     0.00863       0.60408
   8    C  1  pz     Val( 2p)     0.82013      -0.08574
   9    C  1  pz     Ryd( 3p)     0.00447       0.50398
  10    C  1  dxy    Ryd( 3d)     0.00258       1.91731
  11    C  1  dxz    Ryd( 3d)     0.00197       1.61821
  12    C  1  dyz    Ryd( 3d)     0.00174       1.68713
  13    C  1  dx2y2  Ryd( 3d)     0.00412       1.87527
  14    C  1  dz2    Ryd( 3d)     0.00146       1.55631

  15    O  2  s      Cor( 1s)     1.99999     -19.10704
  16    O  2  s      Val( 2s)     1.71274      -0.65850
  17    O  2  s      Ryd( 3s)     0.00097       1.97198
  18    O  2  px     Val( 2p)     1.77499      -0.24209
  19    O  2  px     Ryd( 3p)     0.00170       1.11468
  20    O  2  py     Val( 2p)     1.60303      -0.24637
  21    O  2  py     Ryd( 3p)     0.00089       1.06638
  22    O  2  pz     Val( 2p)     1.49843      -0.23003
  23    O  2  pz     Ryd( 3p)     0.00073       1.05315
  24    O  2  dxy    Ryd( 3d)     0.00213       3.01230
  25    O  2  dxz    Ryd( 3d)     0.00104       2.79690
  26    O  2  dyz    Ryd( 3d)     0.00163       2.91501
  27    O  2  dx2y2  Ryd( 3d)     0.00184       2.91754
  28    O  2  dz2    Ryd( 3d)     0.00111       2.79040

  29    N  3  s      Cor( 1s)     1.99998     -14.35189
  30    N  3  s      Val( 2s)     1.36058      -0.47736
  31    N  3  s      Ryd( 3s)     0.00059       1.38825
  32    N  3  px     Val( 2p)     1.34307      -0.22031
  33    N  3  px     Ryd( 3p)     0.00188       0.84184
  34    N  3  py     Val( 2p)     1.59708      -0.24119
  35    N  3  py     Ryd( 3p)     0.00269       0.94280
  36    N  3  pz     Val( 2p)     1.55451      -0.23977
  37    N  3  pz     Ryd( 3p)     0.00188       0.92548
  38    N  3  dxy    Ryd( 3d)     0.00053       2.26053
  39    N  3  dxz    Ryd( 3d)     0.00065       2.28238
  40    N  3  dyz    Ryd( 3d)     0.00103       2.27998
  41    N  3  dx2y2  Ryd( 3d)     0.00095       2.27028
  42    N  3  dz2    Ryd( 3d)     0.00025       2.03342

  43    H  4  s      Val( 1s)     0.87521       0.01986
  44    H  4  s      Ryd( 2s)     0.00668       0.33487
  45    H  4  px     Ryd( 2p)     0.00037       1.79510
  46    H  4  py     Ryd( 2p)     0.00075       1.98178
  47    H  4  pz     Ryd( 2p)     0.00025       1.65898

  48    H  5  s      Val( 1s)     0.59395       0.09327
  49    H  5  s      Ryd( 2s)     0.00407       0.35840
  50    H  5  px     Ryd( 2p)     0.00050       1.87895
  51    H  5  py     Ryd( 2p)     0.00084       1.80771
  52    H  5  pz     Ryd( 2p)     0.00092       1.87321

  53    H  6  s      Val( 1s)     0.59823       0.08636
  54    H  6  s      Ryd( 2s)     0.00179       0.34711
  55    H  6  px     Ryd( 2p)     0.00050       1.85234
  56    H  6  py     Ryd( 2p)     0.00093       1.83153
  57    H  6  pz     Ryd( 2p)     0.00100       1.88762


 Summary of Natural Population Analysis:

                                     Natural Population
             Natural    ---------------------------------------------
  Atom No    Charge        Core      Valence    Rydberg      Total
 --------------------------------------------------------------------
    C  1    0.55289      1.99998     3.40311    0.04401     5.44711
    O  2   -0.60123      1.99999     6.58919    0.01205     8.60123
    N  3   -0.86567      1.99998     5.85524    0.01045     7.86567
    H  4    0.11674      0.00000     0.87521    0.00806     0.88326
    H  5    0.39972      0.00000     0.59395    0.00633     0.60028
    H  6    0.39755      0.00000     0.59823    0.00422     0.60245
 ====================================================================
 * Total *  0.00000      5.99996    17.91493    0.08511    24.00000

                                 Natural Population
 ---------------------------------------------------------
   Core                       5.99996 ( 99.9993% of    6)
   Valence                   17.91493 ( 99.5274% of   18)
   Natural Minimal Basis     23.91489 ( 99.6454% of   24)
   Natural Rydberg Basis      0.08511 (  0.3546% of   24)
 ---------------------------------------------------------

    Atom No         Natural Electron Configuration
 ----------------------------------------------------------------------------
      C  1      [core]2s( 0.87)2p( 2.53)3s( 0.01)3p( 0.02)3d( 0.01)
      O  2      [core]2s( 1.71)2p( 4.88)3d( 0.01)
      N  3      [core]2s( 1.36)2p( 4.49)3p( 0.01)
      H  4            1s( 0.88)2s( 0.01)
      H  5            1s( 0.59)
      H  6            1s( 0.60)


 NATURAL BOND ORBITAL ANALYSIS:

                            Occupancies       Lewis Structure    Low   High
         Max    Occ     -------------------  -----------------   occ   occ
  Cycle  Ctr   Thresh    Lewis   non-Lewis     CR  BD  nC  LP    (L)   (NL)
 ============================================================================
    1     2     1.90    21.51810   2.48190      3   5   0   4     3      4
    2     2     1.89    21.98751   2.01249      3   6   0   3     2      4
    3     2     1.85    22.98501   1.01499      3   6   0   3     1      2
    4     2     1.75    23.54173   0.45827      3   6   0   3     0      1
 ----------------------------------------------------------------------------

 Structure accepted: No low occupancy Lewis orbitals

 -------------------------------------------------------
   Core                      5.99996 ( 99.999% of   6)
   Valence Lewis            17.54177 ( 97.454% of  18)
  ==================      =============================
   Total Lewis              23.54173 ( 98.091% of  24)
  -----------------------------------------------------
   Valence non-Lewis         0.40518 (  1.688% of  24)
   Rydberg non-Lewis         0.05309 (  0.221% of  24)
  ==================      =============================
   Total non-Lewis           0.45827 (  1.909% of  24)
 -------------------------------------------------------


     (Occupancy)   Bond orbital / Coefficients / Hybrids
 ------------------ Lewis ------------------------------------------------------
   1. (1.99998) CR ( 1) C  1            s(100.00%)
                                         1.0000  0.0000  0.0000  0.0000  0.0000
                                         0.0000  0.0000  0.0000  0.0000  0.0000
                                         0.0000  0.0000  0.0000  0.0000
   2. (1.99999) CR ( 1) O  2            s(100.00%)
                                         1.0000  0.0000  0.0000  0.0000  0.0000
                                         0.0000  0.0000  0.0000  0.0000  0.0000
                                         0.0000  0.0000  0.0000  0.0000
   3. (1.99998) CR ( 1) N  3            s(100.00%)
                                         1.0000  0.0000  0.0000  0.0000  0.0000
                                         0.0000  0.0000  0.0000  0.0000  0.0000
                                         0.0000  0.0000  0.0000  0.0000
   4. (1.98078) LP ( 1) O  2            s( 59.36%)p 0.68( 40.61%)d 0.00(  0.03%)
                                         0.0000  0.7704 -0.0118 -0.3459  0.0026
                                        -0.4676  0.0037 -0.2603  0.0023 -0.0111
                                        -0.0062 -0.0091  0.0027  0.0054
   5. (1.85002) LP ( 2) O  2            s(  0.01%)p 1.00( 99.88%)d 0.00(  0.11%)
                                         0.0000  0.0089 -0.0036  0.8445 -0.0078
                                        -0.4848  0.0048 -0.2248  0.0028  0.0120
                                         0.0063 -0.0116  0.0275 -0.0052
   6. (1.75777) LP ( 1) N  3            s(  0.00%)p 1.00( 99.99%)d 0.00(  0.01%)
                                         0.0000  0.0052 -0.0003 -0.0099  0.0000
                                         0.7476 -0.0248 -0.6631  0.0236 -0.0056
                                         0.0084 -0.0002 -0.0013 -0.0016
   7. (1.99801) BD ( 1) C  1- O  2
               ( 31.77%)   0.5637* C  1 s( 12.77%)p 6.81( 86.91%)d 0.02(  0.32%)
                                         0.0000  0.3555  0.0366 -0.2566 -0.0259
                                        -0.7482 -0.0109  0.4896 -0.0546  0.0318
                                        -0.0103 -0.0119 -0.0269 -0.0343
               ( 68.23%)   0.8260* O  2 s( 16.19%)p 5.17( 83.63%)d 0.01(  0.18%)
                                         0.0000  0.4021  0.0126  0.2303  0.0057
                                        -0.0018  0.0057  0.8849  0.0102  0.0123
                                         0.0254  0.0292  0.0035  0.0118
   8. (1.99499) BD ( 2) C  1- O  2
               ( 33.55%)   0.5793* C  1 s( 21.32%)p 3.68( 78.42%)d 0.01(  0.26%)
                                         0.0000  0.4600  0.0397 -0.3235 -0.0324
                                        -0.1919 -0.0505 -0.7994  0.0128  0.0146
                                         0.0275  0.0350 -0.0007  0.0195
               ( 66.45%)   0.8151* O  2 s( 24.45%)p 3.08( 75.35%)d 0.01(  0.20%)
                                         0.0000  0.4942  0.0176  0.3355  0.0068
                                         0.7375  0.0139 -0.3111  0.0007  0.0327
                                         0.0014  0.0050 -0.0170 -0.0242
   9. (1.99589) BD ( 1) C  1- N  3
               ( 36.42%)   0.6035* C  1 s( 32.21%)p 2.10( 67.59%)d 0.01(  0.20%)
                                         0.0000  0.5665  0.0344  0.8204  0.0498
                                        -0.0152  0.0045 -0.0035  0.0024  0.0018
                                         0.0003 -0.0018  0.0399 -0.0205
               ( 63.58%)   0.7974* N  3 s( 40.51%)p 1.47( 59.41%)d 0.00(  0.09%)
                                         0.0000  0.6364  0.0048 -0.7699 -0.0113
                                        -0.0302  0.0014 -0.0176  0.0016  0.0020
                                         0.0009  0.0055  0.0255 -0.0129
  10. (1.98366) BD ( 1) C  1- H  4
               ( 57.86%)   0.7606* C  1 s( 34.09%)p 1.93( 65.84%)d 0.00(  0.07%)
                                         0.0000  0.5815 -0.0523 -0.3848 -0.0093
                                         0.6286 -0.0200  0.3385 -0.0128 -0.0140
                                        -0.0061  0.0150 -0.0152 -0.0008
               ( 42.14%)   0.6492* H  4 s( 99.87%)p 0.00(  0.13%)
                                         0.9992 -0.0177  0.0188 -0.0279 -0.0134
  11. (1.99016) BD ( 1) N  3- H  5
               ( 70.61%)   0.8403* N  3 s( 29.42%)p 2.40( 70.52%)d 0.00(  0.06%)
                                         0.0000  0.5424 -0.0012  0.4778  0.0230
                                        -0.4564 -0.0050 -0.5176 -0.0070 -0.0109
                                        -0.0120  0.0177  0.0001  0.0023
               ( 29.39%)   0.5421* H  5 s( 99.75%)p 0.00(  0.25%)
                                         0.9987 -0.0089 -0.0250  0.0292  0.0323
  12. (1.99050) BD ( 1) N  3- H  6
               ( 70.26%)   0.8382* N  3 s( 29.95%)p 2.34( 69.98%)d 0.00(  0.06%)
                                         0.0000  0.5473  0.0006  0.4210  0.0238
                                         0.4803  0.0064  0.5397  0.0077  0.0109
                                         0.0109  0.0197 -0.0022  0.0029
               ( 29.74%)   0.5454* H  6 s( 99.75%)p 0.00(  0.25%)
                                         0.9987 -0.0045 -0.0243 -0.0297 -0.0320
 ---------------- non-Lewis ----------------------------------------------------
  13. (0.16863) BD*( 1) C  1- O  2
               ( 68.23%)   0.8260* C  1 s( 12.77%)p 6.81( 86.91%)d 0.02(  0.32%)
                                         0.0000  0.3555  0.0366 -0.2566 -0.0259
                                        -0.7482 -0.0109  0.4896 -0.0546  0.0318
                                        -0.0103 -0.0119 -0.0269 -0.0343
               ( 31.77%)  -0.5637* O  2 s( 16.19%)p 5.17( 83.63%)d 0.01(  0.18%)
                                         0.0000  0.4021  0.0126  0.2303  0.0057
                                        -0.0018  0.0057  0.8849  0.0102  0.0123
                                         0.0254  0.0292  0.0035  0.0118
  14. (0.07541) BD*( 2) C  1- O  2
               ( 66.45%)   0.8151* C  1 s( 21.32%)p 3.68( 78.42%)d 0.01(  0.26%)
                                         0.0000  0.4600  0.0397 -0.3235 -0.0324
                                        -0.1919 -0.0505 -0.7994  0.0128  0.0146
                                         0.0275  0.0350 -0.0007  0.0195
               ( 33.55%)  -0.5793* O  2 s( 24.45%)p 3.08( 75.35%)d 0.01(  0.20%)
                                         0.0000  0.4942  0.0176  0.3355  0.0068
                                         0.7375  0.0139 -0.3111  0.0007  0.0327
                                         0.0014  0.0050 -0.0170 -0.0242
  15. (0.06609) BD*( 1) C  1- N  3
               ( 63.58%)   0.7974* C  1 s( 32.21%)p 2.10( 67.59%)d 0.01(  0.20%)
                                         0.0000  0.5665  0.0344  0.8204  0.0498
                                        -0.0152  0.0045 -0.0035  0.0024  0.0018
                                         0.0003 -0.0018  0.0399 -0.0205
               ( 36.42%)  -0.6035* N  3 s( 40.51%)p 1.47( 59.41%)d 0.00(  0.09%)
                                         0.0000  0.6364  0.0048 -0.7699 -0.0113
                                        -0.0302  0.0014 -0.0176  0.0016  0.0020
                                         0.0009  0.0055  0.0255 -0.0129
  16. (0.06932) BD*( 1) C  1- H  4
               ( 42.14%)   0.6492* C  1 s( 34.09%)p 1.93( 65.84%)d 0.00(  0.07%)
                                         0.0000 -0.5815  0.0523  0.3848  0.0093
                                        -0.6286  0.0200 -0.3385  0.0128  0.0140
                                         0.0061 -0.0150  0.0152  0.0008
               ( 57.86%)  -0.7606* H  4 s( 99.87%)p 0.00(  0.13%)
                                        -0.9992  0.0177 -0.0188  0.0279  0.0134
  17. (0.01489) BD*( 1) N  3- H  5
               ( 29.39%)   0.5421* N  3 s( 29.42%)p 2.40( 70.52%)d 0.00(  0.06%)
                                         0.0000 -0.5424  0.0012 -0.4778 -0.0230
                                         0.4564  0.0050  0.5176  0.0070  0.0109
                                         0.0120 -0.0177 -0.0001 -0.0023
               ( 70.61%)  -0.8403* H  5 s( 99.75%)p 0.00(  0.25%)
                                        -0.9987  0.0089  0.0250 -0.0292 -0.0323
  18. (0.01084) BD*( 1) N  3- H  6
               ( 29.74%)   0.5454* N  3 s( 29.95%)p 2.34( 69.98%)d 0.00(  0.06%)
                                         0.0000 -0.5473 -0.0006 -0.4210 -0.0238
                                        -0.4803 -0.0064 -0.5397 -0.0077 -0.0109
                                        -0.0109 -0.0197  0.0022 -0.0029
               ( 70.26%)  -0.8382* H  6 s( 99.75%)p 0.00(  0.25%)
                                        -0.9987  0.0045  0.0243  0.0297  0.0320
  19. (0.01529) RY ( 1) C  1            s(  5.92%)p14.71( 87.10%)d 1.18(  6.98%)
                                         0.0000 -0.0314  0.2413  0.0667 -0.6417
                                         0.0398 -0.5856  0.0115 -0.3318 -0.0912
                                        -0.1258  0.0349 -0.2086  0.0309
  20. (0.00978) RY ( 2) C  1            s( 42.53%)p 0.40( 17.20%)d 0.95( 40.27%)
                                         0.0000 -0.0258  0.6517 -0.0537  0.3015
                                         0.0546 -0.2310  0.0169 -0.1468  0.2385
                                         0.0639 -0.2770  0.4973 -0.1330
  21. (0.00456) RY ( 3) C  1            s(  0.04%)p99.99(  7.44%)d99.99( 92.51%)
                                         0.0000 -0.0047  0.0204 -0.0041  0.0827
                                        -0.0346 -0.2362  0.0520  0.0888 -0.5426
                                         0.5797  0.2607  0.2757  0.3882
  22. (0.00212) RY ( 4) C  1            s( 13.29%)p 4.49( 59.69%)d 2.03( 27.02%)
                                         0.0000  0.0065  0.3645  0.0110 -0.5051
                                         0.0290  0.3176  0.0431  0.4880  0.3479
                                         0.3693  0.0828 -0.0325  0.0695
  23. (0.00020) RY ( 5) C  1            s( 20.90%)p 1.17( 24.47%)d 2.61( 54.63%)
                                         0.0000 -0.0071  0.4571 -0.0029  0.4461
                                         0.0179 -0.1129  0.0162  0.1798 -0.0650
                                        -0.0495  0.1765 -0.7007  0.1325
  24. (0.00000) RY ( 6) C  1            s(  0.17%)p30.17(  4.98%)d99.99( 94.85%)
  25. (0.00000) RY ( 7) C  1            s( 10.81%)p 1.40( 15.12%)d 6.85( 74.07%)
  26. (0.00000) RY ( 8) C  1            s(  3.30%)p18.90( 62.37%)d10.40( 34.33%)
  27. (0.00000) RY ( 9) C  1            s(  2.65%)p 8.63( 22.87%)d28.13( 74.49%)
  28. (0.00200) RY ( 1) O  2            s(  0.18%)p99.99( 98.56%)d 6.79(  1.25%)
                                         0.0000 -0.0002  0.0430  0.0043  0.8516
                                        -0.0045 -0.4214 -0.0013 -0.2876  0.0642
                                         0.0246 -0.0442  0.0746 -0.0173
  29. (0.00065) RY ( 2) O  2            s(  1.64%)p56.96( 93.46%)d 2.98(  4.89%)
                                         0.0000 -0.0004  0.1281 -0.0010  0.0693
                                         0.0071 -0.4313 -0.0140  0.8623 -0.1098
                                         0.1455  0.0362  0.1054  0.0576
  30. (0.00014) RY ( 3) O  2            s( 28.32%)p 2.31( 65.47%)d 0.22(  6.21%)
                                         0.0000 -0.0176  0.5319 -0.0201  0.3624
                                        -0.0202  0.6828 -0.0081  0.2372  0.1993
                                         0.0800 -0.0124  0.1070 -0.0663
  31. (0.00001) RY ( 4) O  2            s( 15.37%)p 1.09( 16.79%)d 4.41( 67.84%)
  32. (0.00000) RY ( 5) O  2            s( 12.32%)p 1.21( 14.95%)d 5.91( 72.73%)
  33. (0.00000) RY ( 6) O  2            s( 41.29%)p 0.12(  4.93%)d 1.30( 53.79%)
  34. (0.00000) RY ( 7) O  2            s(  0.83%)p 1.93(  1.61%)d99.99( 97.56%)
  35. (0.00000) RY ( 8) O  2            s(  0.02%)p99.99(  3.10%)d99.99( 96.88%)
  36. (0.00000) RY ( 9) O  2            s(  0.02%)p94.97(  1.66%)d99.99( 98.32%)
  37. (0.00173) RY ( 1) N  3            s(  6.64%)p13.11( 87.09%)d 0.94(  6.27%)
                                         0.0000 -0.0027  0.2577 -0.0006 -0.0009
                                         0.0158  0.9243 -0.0189 -0.1264 -0.2358
                                         0.0430  0.0652 -0.0245  0.0206
  38. (0.00099) RY ( 2) N  3            s( 22.31%)p 2.97( 66.38%)d 0.51( 11.31%)
                                         0.0000  0.0025  0.4724  0.0060 -0.1982
                                        -0.0156 -0.0003  0.0069  0.7901  0.0570
                                        -0.2730  0.0234 -0.1658 -0.0851
  39. (0.00055) RY ( 3) N  3            s( 40.66%)p 0.73( 29.75%)d 0.73( 29.59%)
                                         0.0000  0.0050  0.6377  0.0084 -0.3457
                                        -0.0023 -0.1846 -0.0068 -0.3792  0.3032
                                         0.4070  0.1098 -0.1534  0.0518
  40. (0.00013) RY ( 4) N  3            s( 22.50%)p 2.89( 64.97%)d 0.56( 12.54%)
                                         0.0000 -0.0205  0.4739 -0.0189  0.7720
                                         0.0031 -0.1880  0.0055 -0.1341 -0.1693
                                        -0.1405  0.1301  0.0952 -0.2258
  41. (0.00002) RY ( 5) N  3            s(  3.27%)p 4.34( 14.19%)d25.24( 82.54%)
  42. (0.00000) RY ( 6) N  3            s(  2.55%)p 5.73( 14.59%)d32.54( 82.86%)
  43. (0.00000) RY ( 7) N  3            s(  0.37%)p10.85(  4.02%)d99.99( 95.61%)
  44. (0.00000) RY ( 8) N  3            s(  0.99%)p12.91( 12.74%)d87.46( 86.28%)
  45. (0.00000) RY ( 9) N  3            s(  0.82%)p 7.74(  6.38%)d99.99( 92.80%)
  46. (0.00701) RY ( 1) H  4            s( 99.19%)p 0.01(  0.81%)
                                         0.0194  0.9957  0.0408  0.0694  0.0404
  47. (0.00011) RY ( 2) H  4            s(  0.02%)p99.99( 99.98%)
                                        -0.0011  0.0152 -0.1977 -0.5666  0.7998
  48. (0.00006) RY ( 3) H  4            s(  0.80%)p99.99( 99.20%)
  49. (0.00002) RY ( 4) H  4            s(  0.12%)p99.99( 99.88%)
  50. (0.00421) RY ( 1) H  5            s( 97.91%)p 0.02(  2.09%)
                                         0.0151  0.9894  0.0496 -0.1303 -0.0378
  51. (0.00051) RY ( 2) H  5            s(  0.44%)p99.99( 99.56%)
                                         0.0028  0.0663  0.0100  0.7102 -0.7008
  52. (0.00017) RY ( 3) H  5            s(  0.06%)p99.99( 99.94%)
                                        -0.0031  0.0241  0.8316  0.3826  0.4018
  53. (0.00004) RY ( 4) H  5            s(  1.84%)p53.32( 98.16%)
  54. (0.00188) RY ( 1) H  6            s( 95.58%)p 0.05(  4.42%)
                                         0.0141  0.9776  0.0972  0.1736  0.0677
  55. (0.00068) RY ( 2) H  6            s(  0.65%)p99.99( 99.35%)
                                         0.0009  0.0807 -0.0123 -0.7174  0.6919
  56. (0.00019) RY ( 3) H  6            s(  0.01%)p99.99( 99.99%)
                                        -0.0033  0.0115  0.8390 -0.3844 -0.3850
  57. (0.00003) RY ( 4) H  6            s(  4.00%)p23.98( 96.00%)


 NHO DIRECTIONALITY AND BOND BENDING (deviation from line of nuclear centers at
                                      the position of maximum hybrid amplitude)

         [Thresholds for printing:  angular deviation  >  1.0 degree]
                                    p- or d-character  > 25.0%
                                    orbital occupancy  >  0.10e

                        Line of Centers        Hybrid 1             Hybrid 2
                        ---------------  -------------------  ------------------
           NBO            Theta   Phi    Theta   Phi    Dev   Theta   Phi    Dev
 ===============================================================================
   4. LP ( 1) O  2          --     --    114.3  233.3   --      --     --    --
   5. LP ( 2) O  2          --     --    102.7  330.9   --      --     --    --
   6. LP ( 1) N  3          --     --    131.1   90.9   --      --     --    --
   7. BD ( 1) C  1- O  2  113.1  234.8    63.7  249.3  51.3    17.9   15.4  53.7
   8. BD ( 2) C  1- O  2  113.1  234.8   151.4  215.7  40.4   106.0   64.3  40.2
   9. BD ( 1) C  1- N  3   88.6    2.7    90.0  359.6   3.3     --     --    --
  10. BD ( 1) C  1- H  4   65.0  117.5    65.2  120.4   2.7     --     --    --
  11. BD ( 1) N  3- H  5  129.2  313.2   128.4  315.5   2.0     --     --    --
  12. BD ( 1) N  3- H  6   50.0   51.3    49.8   49.4   1.5     --     --    --


 SECOND ORDER PERTURBATION THEORY ANALYSIS OF FOCK MATRIX IN NBO BASIS

     Threshold for printing:   0.50 kcal/mol
                                                          E(2) E(NL)-E(L) F(L,NL)
      Donor (L) NBO              Acceptor (NL) NBO      kcal/mol   a.u.    a.u.
 ===============================================================================

 within unit  1
    4. LP ( 1) O  2            15. BD*( 1) C  1- N  3      0.94    1.02   0.028
    4. LP ( 1) O  2            16. BD*( 1) C  1- H  4      1.11    0.95   0.029
    4. LP ( 1) O  2            19. RY ( 1) C  1            6.93    1.13   0.079
    4. LP ( 1) O  2            20. RY ( 2) C  1            0.88    1.70   0.035
    5. LP ( 2) O  2            15. BD*( 1) C  1- N  3     24.98    0.72   0.119
    5. LP ( 2) O  2            16. BD*( 1) C  1- H  4     22.26    0.65   0.107
    5. LP ( 2) O  2            19. RY ( 1) C  1            0.74    0.83   0.022
    5. LP ( 2) O  2            20. RY ( 2) C  1            3.50    1.40   0.062
    5. LP ( 2) O  2            23. RY ( 5) C  1            0.98    1.53   0.035
    6. LP ( 1) N  3            13. BD*( 1) C  1- O  2     29.00    0.52   0.109
    6. LP ( 1) N  3            14. BD*( 2) C  1- O  2      3.20    0.65   0.041
    6. LP ( 1) N  3            16. BD*( 1) C  1- H  4      1.09    0.67   0.024
    6. LP ( 1) N  3            21. RY ( 3) C  1            2.04    1.73   0.053
    6. LP ( 1) N  3            27. RY ( 9) C  1            0.65    1.40   0.027
    6. LP ( 1) N  3            51. RY ( 2) H  5            0.97    1.81   0.037
    6. LP ( 1) N  3            55. RY ( 2) H  6            1.17    1.80   0.041
    7. BD ( 1) C  1- O  2      13. BD*( 1) C  1- O  2      0.64    0.82   0.020
    7. BD ( 1) C  1- O  2      37. RY ( 1) N  3            0.82    1.57   0.032
    8. BD ( 2) C  1- O  2      18. BD*( 1) N  3- H  6      1.59    1.11   0.037
    8. BD ( 2) C  1- O  2      38. RY ( 2) N  3            0.54    1.91   0.029
    9. BD ( 1) C  1- N  3      28. RY ( 1) O  2            0.65    1.89   0.031
    9. BD ( 1) C  1- N  3      54. RY ( 1) H  6            0.51    1.22   0.022
   10. BD ( 1) C  1- H  4      17. BD*( 1) N  3- H  5      4.54    0.94   0.058
   10. BD ( 1) C  1- H  4      28. RY ( 1) O  2            1.10    1.66   0.038
   11. BD ( 1) N  3- H  5      14. BD*( 2) C  1- O  2      1.32    1.01   0.033
   11. BD ( 1) N  3- H  5      16. BD*( 1) C  1- H  4      2.21    1.03   0.043
   11. BD ( 1) N  3- H  5      19. RY ( 1) C  1            0.67    1.21   0.025
   12. BD ( 1) N  3- H  6      13. BD*( 1) C  1- O  2      0.58    0.89   0.020
   12. BD ( 1) N  3- H  6      14. BD*( 2) C  1- O  2      3.73    1.02   0.055
   12. BD ( 1) N  3- H  6      22. RY ( 4) C  1            0.93    1.67   0.035


 NATURAL BOND ORBITALS (Summary):

                                                     Principal Delocalizations
           NBO                 Occupancy    Energy   (geminal,vicinal,remote)
 ===============================================================================
 Molecular unit  1  (CH3NO)
 ------ Lewis --------------------------------------
    1. CR ( 1) C  1             1.99998   -10.28445
    2. CR ( 1) O  2             1.99999   -19.10704
    3. CR ( 1) N  3             1.99998   -14.35189
    4. LP ( 1) O  2             1.98078    -0.53687  19(v),16(v),15(v),20(v)
    5. LP ( 2) O  2             1.85002    -0.23549  15(v),16(v),20(v),23(v)
                                                     19(v)
    6. LP ( 1) N  3             1.75777    -0.25963  13(v),14(v),21(v),55(v)
                                                     16(v),51(v),27(v)
    7. BD ( 1) C  1- O  2       1.99801    -0.56217  37(v),13(g)
    8. BD ( 2) C  1- O  2       1.99499    -0.68405  18(v),38(v)
    9. BD ( 1) C  1- N  3       1.99589    -0.73705  28(v),54(v)
   10. BD ( 1) C  1- H  4       1.98366    -0.50868  17(v),28(v)
   11. BD ( 1) N  3- H  5       1.99016    -0.62096  16(v),14(v),19(v)
   12. BD ( 1) N  3- H  6       1.99050    -0.62999  14(v),22(v),13(v)
 ------ non-Lewis ----------------------------------
   13. BD*( 1) C  1- O  2       0.16863     0.25564
   14. BD*( 2) C  1- O  2       0.07541     0.39161
   15. BD*( 1) C  1- N  3       0.06609     0.48097
   16. BD*( 1) C  1- H  4       0.06932     0.41170
   17. BD*( 1) N  3- H  5       0.01489     0.42690
   18. BD*( 1) N  3- H  6       0.01084     0.42558
   19. RY ( 1) C  1             0.01529     0.59019
   20. RY ( 2) C  1             0.00978     1.16369
   21. RY ( 3) C  1             0.00456     1.47401
   22. RY ( 4) C  1             0.00212     1.04230
   23. RY ( 5) C  1             0.00020     1.29149
   24. RY ( 6) C  1             0.00000     1.73859
   25. RY ( 7) C  1             0.00000     1.56422
   26. RY ( 8) C  1             0.00000     0.84693
   27. RY ( 9) C  1             0.00000     1.14338
   28. RY ( 1) O  2             0.00200     1.15324
   29. RY ( 2) O  2             0.00065     1.11940
   30. RY ( 3) O  2             0.00014     1.42946
   31. RY ( 4) O  2             0.00001     2.54697
   32. RY ( 5) O  2             0.00000     2.48673
   33. RY ( 6) O  2             0.00000     2.64556
   34. RY ( 7) O  2             0.00000     2.77198
   35. RY ( 8) O  2             0.00000     2.65590
   36. RY ( 9) O  2             0.00000     2.82149
   37. RY ( 1) N  3             0.00173     1.00334
   38. RY ( 2) N  3             0.00099     1.22334
   39. RY ( 3) N  3             0.00055     1.74750
   40. RY ( 4) N  3             0.00013     1.03714
   41. RY ( 5) N  3             0.00002     2.02135
   42. RY ( 6) N  3             0.00000     2.21371
   43. RY ( 7) N  3             0.00000     2.21256
   44. RY ( 8) N  3             0.00000     1.88727
   45. RY ( 9) N  3             0.00000     1.86925
   46. RY ( 1) H  4             0.00701     0.35116
   47. RY ( 2) H  4             0.00011     1.54833
   48. RY ( 3) H  4             0.00006     1.98724
   49. RY ( 4) H  4             0.00002     1.86796
   50. RY ( 1) H  5             0.00421     0.42475
   51. RY ( 2) H  5             0.00051     1.54615
   52. RY ( 3) H  5             0.00017     1.70765
   53. RY ( 4) H  5             0.00004     2.21523
   54. RY ( 1) H  6             0.00188     0.48096
   55. RY ( 2) H  6             0.00068     1.54125
   56. RY ( 3) H  6             0.00019     1.70957
   57. RY ( 4) H  6             0.00003     2.16374
          -------------------------------
                 Total Lewis   23.54173  ( 98.0905%)
           Valence non-Lewis    0.40518  (  1.6883%)
           Rydberg non-Lewis    0.05309  (  0.2212%)
          -------------------------------
               Total unit  1   24.00000  (100.0000%)
              Charge unit  1    0.00000

 $CHOOSE
   LONE 2 2 3 1 END
   BOND D 1 2 S 1 3 S 1 4 S 3 5 S 3 6 END
 $END

 NBO analysis completed in 0.06 CPU seconds (0 wall seconds)
 Maximum scratch memory used by NBO was 314673 words (2.40 MB)
Stopping NBO...Storing NBOs: nbo.nbo

                                *** returned from  NBO  program ***

-------
TIMINGS
-------

Total SCF time: 0 days 0 hours 0 min 3 sec 

Total time                  ....       3.459 sec
Sum of individual times     ....       3.454 sec  ( 99.9%)

SCF preparation             ....       0.073 sec  (  2.1%)
Fock matrix formation       ....       3.276 sec  ( 94.7%)
  Startup                   ....       0.000 sec  (  0.0% of F)
  Split-RI-J                ....       0.191 sec  (  5.8% of F)
  Chain of spheres X        ....       2.049 sec  ( 62.6% of F)
  XC integration            ....       1.021 sec  ( 31.2% of F)
    XC Preparation          ....       0.000 sec  (  0.0% of XC)
    Basis function eval.    ....       0.479 sec  ( 46.9% of XC)
    Density eval.           ....       0.145 sec  ( 14.2% of XC)
    XC-Functional eval.     ....       0.159 sec  ( 15.6% of XC)
    XC-Potential eval.      ....       0.167 sec  ( 16.3% of XC)
Diagonalization             ....       0.000 sec  (  0.0%)
Density matrix formation    ....       0.009 sec  (  0.3%)
Total Energy calculation    ....       0.000 sec  (  0.0%)
Population analysis         ....       0.080 sec  (  2.3%)
Orbital Transformation      ....       0.004 sec  (  0.1%)
Orbital Orthonormalization  ....       0.000 sec  (  0.0%)
DIIS solution               ....       0.009 sec  (  0.3%)
SOSCF solution              ....       0.003 sec  (  0.1%)
Finished LeanSCF after   3.5 sec

Maximum memory used throughout the entire LEANSCF-calculation: 8.1 MB

-------------------------   --------------------
FINAL SINGLE POINT ENERGY      -169.809778043336
-------------------------   --------------------


------------------------------------------------------------------------------
                              ORCA PROPERTY CALCULATIONS
------------------------------------------------------------------------------

GBWName                                 ... nbo.gbw
Number of atoms                         ...      6
Number of basis functions               ...     75
Max core memory                         ...   1024 MB

Electric properties:
Dipole moment                           ... YES
Quadrupole moment                       ...  NO
Static polarizability (Dipole/Dipole)   ...  NO
Static polarizability (Dipole/Quad.)    ...  NO
Static polarizability (Quad./Quad.)     ...  NO
Static polarizability (Velocity)        ...  NO

Atomic electric properties:
Dipole moment                           ...  NO
Quadrupole moment                       ...  NO
Static polarizability                   ...  NO

Choice of electric origin               ... Center of mass
Position of electric origin             ...     2.374555    -0.798439    -0.281928

General magnetic properties:
Magnetizability                         ...  NO

EPR properties:
g-Tensor (aka g-matrix)                 ...  NO
Zero-Field splitting spin-orbit         ...  NO
Zero-field splitting spin-spin          ...  NO
Hyperfine couplings                     ...  NO (   0 nuclei)
Quadrupole couplings                    ...  NO (   0 nuclei)
Contact density                         ...  NO (   0 nuclei)

NMR properties:
Chemical shifts                         ...  NO (   0 nuclei)
Spin-rotation constants                 ...  NO (   0 nuclei)
Spin-spin couplings                     ...  NO (   0 nuclei,    0 pairs)

Choice of magnetic origin               ... GIAO
Position of magnetic origin             ...     0.000000     0.000000     0.000000

Properties with geometric perturbations:
SCF Hessian                             ...  NO
IR spectrum                             ...  NO
VCD spectrum                            ...  NO
X-ray spectroscopy properties:
SCF XES/XAS/RIXS spectra                ...  NO


-------------
DIPOLE MOMENT
-------------

Method             : SCF
Type of density    : Electron Density
Multiplicity       :   1
Irrep              :   0
Energy             :  -169.8097780433359958 Eh
Relativity type    : 
Basis              : AO
                                X                 Y                 Z
Electronic contribution:     -1.152674696      -0.998477105      -0.517573515
Nuclear contribution   :      2.311908373       1.777475825       0.923706857
                        -----------------------------------------
Total Dipole Moment    :      1.159233677       0.778998721       0.406133343
                        -----------------------------------------
Magnitude (a.u.)       :      1.454512296
Magnitude (Debye)      :      3.697076444



--------------------
Rotational spectrum 
--------------------
 
Rotational constants in cm-1:             2.422700             0.375269             0.326820 
Rotational constants in MHz :         72630.703923         11250.286467          9797.806037 

Dipole components along the rotational axes: 
x,y,z [a.u.] :     1.434456    -0.239493    -0.024192 
x,y,z [Debye]:     3.646097    -0.608742    -0.061492 

 

Dipole moment calculation done in   0.0 sec 

Maximum memory used throughout the entire PROP-calculation: 4.7 MB

--------------------------------
SUGGESTED CITATIONS FOR THIS RUN
--------------------------------

Below you find a list of papers that are relevant to this ORCA run
We neither can nor want to force you to cite these papers, but we appreciate if you do
You receive ORCA, which is the product of decades of hard work by many enthusiastic individuals, for free
The only thing we kindly ask in return is that you cite our papers,
We deeply appreciate it, if you show your appreciation for ORCA by not just citing the generic ORCA reference.

Please note that relegating all ORCA citations to the supporting information does *not* help us.
SI sections are not indexed - citations you put there will not count into any citation statistics
But we need these citations in order to attract the funding resources that allow us to do what we are doing

Therefore, if you are a happy ORCA user, please consider citing a few of the papers listed below in the main body of your paper

In addition to the list printed below, the program has created the file nbo.bibtex that contains the list in bibtex format
You can import this file easily into all common literature databanks and citation aid programs


List of essential papers. We consider these as the minimum necessary citations

  1. Neese,F.
     Software update: the ORCA program system, version 5.0
     WIRES Comput. Molec. Sci., 2022 12(1)e1606
     doi.org/10.1002/wcms.1606

List of papers to cite with high priority. The work reported in these papers was absolutely
necessary for this run to complete.
Our perspective: the developers of density functionals and basis sets usually get cited in chemistry papers
Good! But without the algorithms to do something with them, the functionals or basis sets would not do anything.
Hence, in our opinion, the algorithm design and method developments papers are equally worthy of getting cited

  1. Neese,F.
     An improvement of the resolution of the identity approximation for the formation of the Coulomb matrix
     J. Comp. Chem., 2003 24(14)1740-1747
     doi.org/10.1002/jcc.10318
  2. Neese,F.; Wennmohs,F.; Hansen,A.; Becker,U.
     Efficient, approximate and parallel Hartree-Fock and hybrid DFT calculations. A 'chain-of-spheres' algorithm for the Hartree-Fock exchange
     Chem. Phys., 2009 356(1-3)98-109
     doi.org/10.1016/j.chemphys.2008.10.036
  3. Helmich-Paris,B.; de Souza,B.; Neese,F.; Izsák,R.
     An improved chain of spheres for exchange algorithm
     J. Chem. Phys., 2021 155 104109
     doi.org/doi: 10.1063/5.0058766.
  4. Neese,F.
     The SHARK Integral Generation and Digestion System
     J. Comp. Chem., 2022  1-16
     doi.org/10.1002/jcc.26942

List of suggested additional citations. These are papers that are important in the 'surrounding' of 
of this run, or papers that preceded the highly important papers. If you like your results we are grateful for a citation.

  1. Izsak,R.; Neese,F.
     An overlap fitted chain of spheres exchange method
     J. Chem. Phys., 2011 135 144105
     doi.org/10.1063/1.3646921
  2. Izsak,R.; Hansen,A.; Neese,F.
     The resolution of identity and chain of spheres approximations for the LPNO-CCSD singles Fock term
     Molec. Phys., 2012 110 2413-2417
     doi.org/10.1080/00268976.2012.687466
  3. Neese,F.
     The ORCA program system
     WIRES Comput. Molec. Sci., 2012 2(1)73-78
     doi.org/10.1002/wcms.81
  4. Izsak,R.; Neese,F.; Klopper,W.
     Robust fitting techniques in the chain of spheres approximation to the Fock exchange: The role of the complementary space
     J. Chem. Phys., 2013 139 
     doi.org/10.1063/1.4819264
  5. Neese,F.
     Software update: the ORCA program system, version 4.0
     WIRES Comput. Molec. Sci., 2018 8(1)1-6
     doi.org/10.1002/wcms.1327
  6. Neese,F.; Wennmohs,F.; Becker,U.; Riplinger,C.
     The ORCA quantum chemistry program package
     J. Chem. Phys., 2020 152 Art. No. L224108
     doi.org/10.1063/5.0004608

List of optional additional citations

  1. Neese,F.
     Approximate second-order SCF convergence for spin unrestricted wavefunctions
     Chem. Phys. Lett., 2000 325(1-3)93-98
     doi.org/10.1016/s0009-2614(00)00662-x

Timings for individual modules:

Sum of individual times          ...        4.910 sec (=   0.082 min)
Startup calculation              ...        1.077 sec (=   0.018 min)  21.9 %
SCF iterations                   ...        3.724 sec (=   0.062 min)  75.8 %
Property calculations            ...        0.110 sec (=   0.002 min)   2.2 %
                             ****ORCA TERMINATED NORMALLY****
TOTAL RUN TIME: 0 days 0 hours 0 minutes 5 seconds 306 msec
