
                                 *****************
                                 * O   R   C   A *
                                 *****************

                                            #,                                       
                                            ###                                      
                                            ####                                     
                                            #####                                    
                                            ######                                   
                                           ########,                                 
                                     ,,################,,,,,                         
                               ,,#################################,,                 
                          ,,##########################################,,             
                       ,#########################################, ''#####,          
                    ,#############################################,,   '####,        
                  ,##################################################,,,,####,       
                ,###########''''           ''''###############################       
              ,#####''   ,,,,##########,,,,          '''####'''          '####       
            ,##' ,,,,###########################,,,                        '##       
           ' ,,###''''                  '''############,,,                           
         ,,##''                                '''############,,,,        ,,,,,,###''
      ,#''                                            '''#######################'''  
     '                                                          ''''####''''         
             ,#######,   #######,   ,#######,      ##                                
            ,#'     '#,  ##    ##  ,#'     '#,    #''#        ,####,   ,####,        
            ##       ##  ##   ,#'  ##            #'  '#       #'       #'  '#        
            ##       ##  #######   ##           ,######,      #####,   #    #        
            '#,     ,#'  ##    ##  '#,     ,#' ,#      #,     #,   #   #,  ,#        
             '#######'   ##     ##  '#######'  #'      '#     '####' # '####'        



                #########################################################
                #                        -***-                          #
                #          Department of theory and spectroscopy        #
                #                                                       #
                #                      Frank Neese                      #
                #                                                       #
                #     Directorship, Architecture, Infrastructure        #
                #                    SHARK, DRIVERS                     #
                #        Core code/Algorithms in most modules           #
                #                                                       #
                #        Max Planck Institute fuer Kohlenforschung      #
                #                Kaiser Wilhelm Platz 1                 #
                #                 D-45470 Muelheim/Ruhr                 #
                #                      Germany                          #
                #                                                       #
                #                  All rights reserved                  #
                #                        -***-                          #
                #########################################################


                         Program Version 6.0.1  -  RELEASE   -


 With contributions from (in alphabetic order):
[Max-Planck-Institut fuer Kohlenforschung]                               
  Daniel Aravena         : Magnetic Suceptibility                        
  Michael Atanasov       : Ab Initio Ligand Field Theory (pilot matlab implementation)
  Alexander A. Auer      : GIAO ZORA, VPT2 properties, NMR spectrum      
  Ute Becker             : All parallelization in ORCA, NUMFREQ, NUMCALC 
  Giovanni Bistoni       : ED, misc. LED, open-shell LED, HFLD           
  Martin Brehm           : Molecular dynamics                            
  Dmytro Bykov           : pre 5.0 version of the SCF Hessian            
  Marcos Casanova-Páez   : Triplet and SCS-CIS(D). UHF-(DLPNO)-IP/EA/STEOM-CCSD. UHF-CVS-IP/STEOM-CCSD   
  Vijay G. Chilkuri      : MRCI spin determinant printing, contributions to CSF-ICE 
  Pauline Colinet        : FMM embedding                                 
  Dipayan Datta          : RHF DLPNO-CCSD density                        
  Achintya Kumar Dutta   : EOM-CC, STEOM-CC                              
  Nicolas Foglia         : Exact transition moments, OPA infrastructure, MCD improvements    
  Dmitry Ganyushin       : Spin-Orbit,Spin-Spin,Magnetic field MRCI      
  Miquel Garcia-Rates    : C-PCM and meta-GGA Hessian, CCSD/C-PCM, Gaussian charge scheme 
  Tiago L. C. Gouveia    : GS-ROHF, GS-ROCIS                             
  Yang Guo               : DLPNO-NEVPT2, F12-NEVPT2, CIM, IAO-localization        
  Andreas Hansen         : Spin unrestricted coupled pair/coupled cluster methods 
  Ingolf Harden          : AUTO-CI MPn and infrastructure                
  Benjamin Helmich-Paris : MC-RPA, TRAH-(SCF,CASSCF), AVAS, COSX integrals, SCF dyn. polar. 
  Lee Huntington         : MR-EOM, pCC                                   
  Robert Izsak           : Overlap fitted RIJCOSX, COSX-SCS-MP3, EOM     
  Riya Kayal             : Wick's Theorem for AUTO-CI, AUTO-CI UHF-CCSDT 
  Emily Kempfer          : AUTO-CI, RHF CISDT and CCSDT                  
  Christian Kollmar      : KDIIS, OOCD, Brueckner-CCSD(T), CCSD density, CASPT2, CASPT2-K, improved NEVPT2 
  Axel Koslowski         : Symmetry handling                             
  Simone Kossmann        : meta-GGA functionals, TD-DFT gradient, OOMP2, (MP2 Hessian; deprecated post 5.0) 
  Lucas Lang             : DCDCAS                                        
  Marvin Lechner         : AUTO-CI (C++ implementation), FIC-MRCC        
  Spencer Leger          : CASSCF response                               
  Dagmar Lenk            : GEPOL surface, SMD, ORCA-2-JSON               
  Dimitrios Liakos       : Extrapolation schemes; Compound Job, initial MDCI parallelization 
  Dimitrios Manganas     : Further ROCIS development; embedding schemes. LFT, Crystal Embedding 
  Dimitrios Pantazis     : SARC Basis sets                               
  Anastasios Papadopoulos: AUTO-CI, single reference methods and gradients 
  Taras Petrenko         : pre 6.0 DFT Hessian and TD-DFT gradient, (ASA, deprecated), ECA, 1-Electron XAS/XES, NRVS 
  Peter Pinski           : DLPNO-MP2, DLPNO-MP2 Gradient                 
  Christoph Reimann      : Effective Core Potentials                     
  Marius Retegan         : Local ZFS, SOC                                
  Christoph Riplinger    : Optimizer, TS searches, QM/MM, DLPNO-CCSD(T), (RO)-DLPNO pert. Triples 
  Michael Roemelt        : Original ROCIS implementation                 
  Masaaki Saitow         : Open-shell DLPNO-CCSD energy and density      
  Barbara Sandhoefer     : DKH picture change effects                    
  Kantharuban Sivalingam : CASSCF convergence/infrastructure, NEVPT2 and variants, FIC-MRCI 
  Bernardo de Souza      : ESD, SOC TD-DFT                               
  Georgi L. Stoychev     : AutoAux, RI-MP2 NMR, DLPNO-MP2 response, X2C  
  Van Anh Tran           : RI-MP2 g-tensors                              
  Willem Van den Heuvel  : Paramagnetic NMR                              
  Zikuan Wang            : NOTCH, Electric field optimization            
  Frank Wennmohs         : Technical directorship and infrastructure     
  Hang Xu                : AUTO-CI-Response properties                   
                                                                         
[FACCTs GmbH]                                                            
  Markus Bursch, Miquel Garcia-Rates, Christoph Riplinger, Bernardo de Souza, Georgi L. Stoychev 
                                                                 
  APM, Basis sets (HGBS, AHGBS, def-TZVP (Ac-Lr), def2-XVPD (La-Lu)), CI-OPT, improved COSX, DLPNO-Multilevel,           
  DOCKER, DRACO, updates on ESD, GOAT, IRC, LR-CPCM, MBIS, meta-GGA TD-DFT gradient, ML-optimized integration grids, 
  MM, NACMEs, nearIR, NEB, NEB-TS, NL-DFT gradient (VV10), 2- and 3-layer-ONIOM, interface openCOSMO-RS, QMMM,   
  Crystal-QMMM, SF, symmetry and pop. for TD-DFT, r2SCAN hybrids, SOLVATOR                                   
                                                                         
[Other institutions]                                                     
  V. Asgeirsson          : NEB                                           
  Christoph Bannwarth    : sTDA-DFT, sTD-DFT, PBEh-3c, B97-3c, D3        
  Sebastian Ehlert       : rSCAN, r2SCAN, r2SCAN-3c, D4, dhf basis sets  
  Marvin Friede          : D4 for Fr, Ra, Ac-Lr                          
  Lars Goerigk           : TD-DFT with DH, B97 family of functionals     
  Stefan Grimme          : VdW corrections, initial TS optimization, DFT functionals, gCP, sTDA/sTD-DF 
  Waldemar Hujo          : DFT-NL                                        
  H. Jonsson             : NEB                                           
  Holger Kruse           : gCP                                           
  Marcel Mueller         : wB97X-3c, vDZP basis set                      
  Hagen Neugebauer       : wr2SCAN                                       
  Tobias Risthaus        : range-separated hybrid DFT                    
  Lukas Wittmann         : regularized MP2, r2SCAN double-hybrids, wr2SCAN        
                                                                         
We gratefully acknowledge several colleagues who have allowed us to      
interface, adapt or use parts of their codes:                            
  Ed Valeev, F. Pavosevic, A. Kumar             : LibInt (2-el integral package), F12 methods 
  Garnet Chan, S. Sharma, J. Yang, R. Olivares  : DMRG                   
  Ulf Ekstrom                                   : XCFun DFT Library      
  Mihaly Kallay                                 : mrcc  (arbitrary order and MRCC methods)
  Frank Weinhold                                : gennbo (NPA and NBO analysis)           
  Simon Mueller                                 : openCOSMO-RS                            
  Christopher J. Cramer and Donald G. Truhlar   : smd solvation model                     
  S Lehtola, MJT Oliveira, MAL Marques          : LibXC Library                           
  Liviu Ungur et al                             : ANISO software                          


 Your calculation uses the libint2 library for the computation of 2-el integrals
 For citations please refer to: http://libint.valeyev.net

 Your ORCA version has been built with support for libXC version: 6.2.2
 For citations please refer to: https://libxc.gitlab.io

 This ORCA versions uses:
   CBLAS   interface :  Fast vector & matrix operations
   LAPACKE interface :  Fast linear algebra routines
   SCALAPACK package :  Parallel linear algebra routines
   Shared memory     :  Shared parallel matrices
   BLAS/LAPACK       :  OpenBLAS 0.3.27  USE64BITINT DYNAMIC_ARCH NO_AFFINITY Haswell SINGLE_THREADED
        Core in use  :  Haswell
   Copyright (c) 2011-2014, The OpenBLAS Project




***************************************
The coordinates will be read from file: dihedral.xyz
***************************************


================================================================================

----- Orbital basis set information -----
Your calculation utilizes the basis: cc-pVDZ 
       H, B-Ne : Obtained from the ccRepo (grant-hill.group.shef.ac.uk/ccrepo) Feb. 2017
                 T. H. Dunning, Jr., J. Chem. Phys. 90, 1007 (1989)
            He : Obtained from the ccRepo (grant-hill.group.shef.ac.uk/ccrepo) Feb. 2017
                 D. E. Woon, T. H. Dunning, Jr., J. Chem. Phys. 100, 2975 (1994)
  Li-Be, Na-Mg : Obtained from the ccRepo (grant-hill.group.shef.ac.uk/ccrepo) Feb. 2017
                 B. P. Prascher, D. E. Woon, K. A. Peterson, T. H. Dunning, Jr., A. K. Wilson, Theor. Chem. Acc. 128, 69 (2011)
         Al-Ar : Obtained from the ccRepo (grant-hill.group.shef.ac.uk/ccrepo) Feb. 2017
                 D. E. Woon, T. H. Dunning, Jr., J. Chem. Phys. 98, 1358 (1993)
            Ca : Obtained from the Peterson Research Group Website (tyr0.chem.wsu.edu/~kipeters) Feb. 2017
                 J. Koput, K. A. Peterson, J. Phys. Chem. 106, 9595 (2002)
         Sc-Zn : Obtained from the ccRepo (grant-hill.group.shef.ac.uk/ccrepo) Feb. 2017
                 N. B. Balabanov, K. A. Peterson, J. Chem. Phys. 123, 064107 (2005)
                 N. B. Balabanov, K. A. Peterson, J. Chem. Phys. 125, 074110 (2006)
         Ga-Kr : Obtained from the ccRepo (grant-hill.group.shef.ac.uk/ccrepo) Feb. 2017
                 A. K. Wilson, D. E. Woon, K. A. Peterson, T. H. Dunning, Jr., J. Chem. Phys. 110, 7667 (1999)

----- AuxJ basis set information -----
Your calculation utilizes the auxiliary basis: def2/J
   F. Weigend, Phys. Chem. Chem. Phys. 8, 1057 (2006).

================================================================================
                                        WARNINGS
                       Please study these warnings very carefully!
================================================================================


================================================================================
                                       INPUT FILE
================================================================================
NAME = nbo.com
|  1> ! B3LYP cc-pVDZ def2/J RIJCOSX NBO
|  2> 
|  3> * xyzfile 0 1 dihedral.xyz
|  4> 
|  5>                          ****END OF INPUT****
================================================================================

                       ****************************
                       * Single Point Calculation *
                       ****************************

---------------------------------
CARTESIAN COORDINATES (ANGSTROEM)
---------------------------------
  C      0.988460   -0.141873   -0.002458
  O      0.345507   -1.054737   -0.479810
  N      2.349165   -0.077949    0.031473
  H      0.520676    0.758318    0.469698
  H      2.851774    0.214020   -0.800199
  H      2.868506   -0.314930    0.866763

----------------------------
CARTESIAN COORDINATES (A.U.)
----------------------------
  NO LB      ZA    FRAG     MASS         X           Y           Z
   0 C     6.0000    0    12.011    1.867919   -0.268102   -0.004644
   1 O     8.0000    0    15.999    0.652913   -1.993165   -0.906710
   2 N     7.0000    0    14.007    4.439278   -0.147302    0.059476
   3 H     1.0000    0     1.008    0.983935    1.433013    0.887600
   4 H     1.0000    0     1.008    5.389073    0.404440   -1.512157
   5 H     1.0000    0     1.008    5.420690   -0.595131    1.637946

--------------------------------
INTERNAL COORDINATES (ANGSTROEM)
--------------------------------
 C      0   0   0     0.000000000000     0.00000000     0.00000000
 O      1   0   0     1.214320820051     0.00000000     0.00000000
 N      1   2   0     1.362628091244   125.01449517     0.00000000
 H      1   2   3     1.118971157173   123.31850457   180.10054251
 H      3   1   2     1.014663334089   119.19186789    80.05551287
 H      3   1   2     1.011723545910   121.47783723   260.05381326

---------------------------
INTERNAL COORDINATES (A.U.)
---------------------------
 C      0   0   0     0.000000000000     0.00000000     0.00000000
 O      1   0   0     2.294733788616     0.00000000     0.00000000
 N      1   2   0     2.574993914838   125.01449517     0.00000000
 H      1   2   3     2.114549038814   123.31850457   180.10054251
 H      3   1   2     1.917435819559   119.19186789    80.05551287
 H      3   1   2     1.911880425009   121.47783723   260.05381326

---------------------
BASIS SET INFORMATION
---------------------
There are 4 groups of distinct atoms

 Group   1 Type C   : 17s4p1d contracted to 3s2p1d pattern {881/31/1}
 Group   2 Type O   : 17s4p1d contracted to 3s2p1d pattern {881/31/1}
 Group   3 Type N   : 17s4p1d contracted to 3s2p1d pattern {881/31/1}
 Group   4 Type H   : 4s1p contracted to 2s1p pattern {31/1}

Atom   0C    basis set group =>   1
Atom   1O    basis set group =>   2
Atom   2N    basis set group =>   3
Atom   3H    basis set group =>   4
Atom   4H    basis set group =>   4
Atom   5H    basis set group =>   4
---------------------------------
AUXILIARY/J BASIS SET INFORMATION
---------------------------------
There are 4 groups of distinct atoms

 Group   1 Type C   : 12s5p4d2f1g contracted to 6s4p3d1f1g pattern {711111/2111/211/2/1}
 Group   2 Type O   : 12s5p4d2f1g contracted to 6s4p3d1f1g pattern {711111/2111/211/2/1}
 Group   3 Type N   : 12s5p4d2f1g contracted to 6s4p3d1f1g pattern {711111/2111/211/2/1}
 Group   4 Type H   : 5s2p1d contracted to 3s1p1d pattern {311/2/1}

Atom   0C    basis set group =>   1
Atom   1O    basis set group =>   2
Atom   2N    basis set group =>   3
Atom   3H    basis set group =>   4
Atom   4H    basis set group =>   4
Atom   5H    basis set group =>   4
------------------------------------------------------------------------------
                             ORCA STARTUP CALCULATIONS
                           -- RI-GTO INTEGRALS CHOSEN --
------------------------------------------------------------------------------
------------------------------------------------------------------------------
                   ___                                                        
                  /   \      - P O W E R E D   B Y -                         
                 /     \                                                     
                 |  |  |   _    _      __       _____    __    __             
                 |  |  |  | |  | |    /  \     |  _  \  |  |  /  |          
                  \  \/   | |  | |   /    \    | | | |  |  | /  /          
                 / \  \   | |__| |  /  /\  \   | |_| |  |  |/  /          
                |  |  |   |  __  | /  /__\  \  |    /   |      \           
                |  |  |   | |  | | |   __   |  |    \   |  |\   \          
                \     /   | |  | | |  |  |  |  | |\  \  |  | \   \       
                 \___/    |_|  |_| |__|  |__|  |_| \__\ |__|  \__/        
                                                                              
                      - O R C A' S   B I G   F R I E N D -                    
                                      &                                       
                       - I N T E G R A L  F E E D E R -                       
                                                                              
 v1 FN, 2020, v2 2021, v3 2022-2024                                           
------------------------------------------------------------------------------


----------------------
SHARK INTEGRAL PACKAGE
----------------------

Number of atoms                             ...      6
Number of basis functions                   ...     75
Number of shells                            ...     45
Maximum angular momentum                    ...      2
Integral batch strategy                     ... SHARK/LIBINT Hybrid
RI-J (if used) integral strategy            ... SPLIT-RIJ (Revised 2003 algorithm where possible)
Printlevel                                  ...      1
Contraction scheme used                     ... PARTIAL GENERAL contraction
Prescreening option                         ... SCHWARTZ
   Thresh                                   ... 1.000e-10
   Tcut                                     ... 1.000e-11
   Tpresel                                  ... 1.000e-11 
Coulomb Range Separation                    ... NOT USED
Exchange Range Separation                   ... NOT USED
Multipole approximations                    ... NOT USED
Finite Nucleus Model                        ... NOT USED
CABS basis                                  ... NOT available
Auxiliary Coulomb fitting basis             ... AVAILABLE
   # of basis functions in Aux-J            ...    180
   # of shells in Aux-J                     ...     60
   Maximum angular momentum in Aux-J        ...      4
Auxiliary J/K fitting basis                 ... NOT available
Auxiliary Correlation fitting basis         ... NOT available
Auxiliary 'external' fitting basis          ... NOT available

Checking pre-screening integrals            ... done (  0.0 sec) Dimension = 45
Save PGC pre-screening integrals            ... done (  0.0 sec) Dimension = 45
Calculate PGC overlap integrals             ... done (  0.0 sec) Dimension = 27
Calculating pre-screening integrals (ORCA)  ... done (  0.1 sec) Dimension = 27
Check shell pair data                       ... done (  0.0 sec)
Shell pair information
Shell pair cut-off parameter TPreSel        ...   1.0e-11
Total number of shell pairs                 ...      1035
Shell pairs after pre-screening             ...       909
Total number of primitive shell pairs       ...      1671
Primitive shell pairs kept                  ...      1387
          la=0 lb=0:    435 shell pairs
          la=1 lb=0:    297 shell pairs
          la=1 lb=1:     45 shell pairs
          la=2 lb=0:     99 shell pairs
          la=2 lb=1:     27 shell pairs
          la=2 lb=2:      6 shell pairs

Calculating one electron integrals          ... done (  0.0 sec)
Calculating RI/J V-Matrix + Cholesky decomp.... done (  0.0 sec)
Calculating Nuclear repulsion               ... done (  0.0 sec) ENN=     70.897817211199 Eh

Diagonalization of the overlap matrix:
Smallest eigenvalue                        ... 7.842e-03
Time for diagonalization                   ...    0.005 sec
Threshold for overlap eigenvalues          ... 1.000e-07
Number of eigenvalues below threshold      ... 0
Time for construction of square roots      ...    0.000 sec
Total time needed                          ...    0.006 sec

-------------------
DFT GRID GENERATION
-------------------

General Integration Accuracy     IntAcc      ... 4.388
Radial Grid Type                 RadialGrid  ... OptM3 with GC (2021)
Angular Grid (max. ang.)         AngularGrid ... 4 (Lebedev-302)
Angular grid pruning method      GridPruning ... 4 (adaptive)
Weight generation scheme         WeightScheme... mBecke (2022)
Basis function cutoff            BFCut       ... 1.0000e-10
Integration weight cutoff        WCut        ... 1.0000e-14
Partially contracted basis set               ... off
Rotationally invariant grid construction     ... off
Angular grids for H and He will be reduced by one unit

Total number of grid points                  ...    28117
Total number of batches                      ...      443
Average number of points per batch           ...       63
Average number of grid points per atom       ...     4686

---------------------
SHARK GRID GENERATION
---------------------

General Integration Accuracy     IntAcc      ... 4.388
Radial Grid Type                 RadialGrid  ... OptM3 with GC (2021)
Angular Grid (max. ang.)         AngularGrid ... 4 (Lebedev-302)
Angular grid pruning method      GridPruning ... 4 (adaptive)
Weight generation scheme         WeightScheme... mBecke (2022)
Basis function cutoff            BFCut       ... 1.0000e-10
Integration weight cutoff        WCut        ... 1.0000e-14
Partially contracted basis set               ... off
Rotationally invariant grid construction     ... off
Angular grids for H and He will be reduced by one unit
Steep s-basis detected: some atoms will have their radial
                        grid points doubled.

Total number of grid points                  ...    46699
Total number of batches                      ...      734
Average number of points per batch           ...       63
Average number of grid points per atom       ...     7783

--------------------
COSX GRID GENERATION
--------------------

GRIDX 1
-------
General Integration Accuracy     IntAcc      ... 3.816
Radial Grid Type                 RadialGrid  ... OptM3 with GC (2021)
Angular Grid (max. ang.)         AngularGrid ... 1 (Lebedev-50)
Angular grid pruning method      GridPruning ... 4 (adaptive)
Weight generation scheme         WeightScheme... mBecke (2022)
Basis function cutoff            BFCut       ... 1.0000e-10
Integration weight cutoff        WCut        ... 1.0000e-14
Partially contracted basis set               ... on
Rotationally invariant grid construction     ... off
Angular grids for H and He will be reduced by one unit

Total number of grid points                  ...     3619
Total number of batches                      ...       32
Average number of points per batch           ...      113
Average number of grid points per atom       ...      603
UseSFitting                                  ... on

GRIDX 2
-------
General Integration Accuracy     IntAcc      ... 4.020
Radial Grid Type                 RadialGrid  ... OptM3 with GC (2021)
Angular Grid (max. ang.)         AngularGrid ... 2 (Lebedev-110)
Angular grid pruning method      GridPruning ... 4 (adaptive)
Weight generation scheme         WeightScheme... mBecke (2022)
Basis function cutoff            BFCut       ... 1.0000e-10
Integration weight cutoff        WCut        ... 1.0000e-14
Partially contracted basis set               ... on
Rotationally invariant grid construction     ... off
Angular grids for H and He will be reduced by one unit

Total number of grid points                  ...     7980
Total number of batches                      ...       66
Average number of points per batch           ...      120
Average number of grid points per atom       ...     1330
UseSFitting                                  ... on

GRIDX 3
-------
General Integration Accuracy     IntAcc      ... 4.338
Radial Grid Type                 RadialGrid  ... OptM3 with GC (2021)
Angular Grid (max. ang.)         AngularGrid ... 3 (Lebedev-194)
Angular grid pruning method      GridPruning ... 4 (adaptive)
Weight generation scheme         WeightScheme... mBecke (2022)
Basis function cutoff            BFCut       ... 1.0000e-10
Integration weight cutoff        WCut        ... 1.0000e-14
Partially contracted basis set               ... on
Rotationally invariant grid construction     ... off
Angular grids for H and He will be reduced by one unit

Total number of grid points                  ...    17647
Total number of batches                      ...      141
Average number of points per batch           ...      125
Average number of grid points per atom       ...     2941
UseSFitting                                  ... on
Initializing property integral containers    ... done (  0.0 sec)

SHARK setup successfully completed in   1.0 seconds

Maximum memory used throughout the entire STARTUP-calculation: 19.5 MB
-------------------------------------------------------------------------------
                                 ORCA GUESS
                   Start orbitals & Density for SCF / CASSCF
-------------------------------------------------------------------------------

------------
SCF SETTINGS
------------
Hamiltonian:
 Density Functional     Method          .... DFT(GTOs)
 Exchange Functional    Exchange        .... B88
   X-Alpha parameter    XAlpha          ....  0.666667
   Becke's b parameter  XBeta           ....  0.004200
 Correlation Functional Correlation     .... LYP
 LDA part of GGA corr.  LDAOpt          .... VWN-5
 Gradients option       PostSCFGGA      .... off
 Hybrid DFT is turned on
   Fraction HF Exchange ScalHFX         ....  0.200000
   Scaling of DF-GGA-X  ScalDFX         ....  0.720000
   Scaling of DF-GGA-C  ScalDFC         ....  0.810000
   Scaling of DF-LDA-C  ScalLDAC        ....  1.000000
   Perturbative correction              ....  0.000000
   NL short-range parameter             ....  4.800000
 RI-approximation to the Coulomb term is turned on
   Number of AuxJ basis functions       .... 180
   RIJ-COSX (HFX calculated with COS-X)).... on


General Settings:
 Integral files         IntName         .... nbo
 Hartree-Fock type      HFTyp           .... RHF
 Total Charge           Charge          ....    0
 Multiplicity           Mult            ....    1
 Number of Electrons    NEL             ....   24
 Basis Dimension        Dim             ....   57
 Nuclear Repulsion      ENuc            ....     70.8978172112 Eh

Convergence Acceleration:
 AO-DIIS                CNVDIIS         .... on
   Start iteration      DIISMaxIt       ....    12
   Startup error        DIISStart       ....  0.200000
   # of expansion vecs  DIISMaxEq       ....     5
   Bias factor          DIISBfac        ....   1.050
   Max. coefficient     DIISMaxC        ....  10.000
 MO-DIIS                CNVKDIIS        .... off
 Trust-Rad. Augm. Hess. CNVTRAH         .... auto
   Auto Start mean grad. ratio tolernc. ....  1.125000
   Auto Start start iteration           ....    50
   Auto Start num. interpolation iter.  ....    10
   Max. Number of Micro iterations      ....    24
   Max. Number of Macro iterations      .... Maxiter - #DIIS iter
   Number of Davidson start vectors     ....     2
   Converg. threshold    (grad. norm)   ....   5.000e-05
   Grad. Scal. Fac. for Micro threshold ....   0.100
   Minimum threshold for Micro iter.    ....   1.000e-02
   NR start threshold (gradient norm)   ....   1.000e-04
   Initial trust radius                 ....   0.400
   Minimum AH scaling param. (alpha)    ....   1.000
   Maximum AH scaling param. (alpha)    .... 1000.000
   Quad. conv. algorithm                .... NR
   White noise on init. David. guess    .... on
   Maximum white noise                  ....   0.010
   Pseudo random numbers                .... off
   Inactive MOs                         .... canonical
   Orbital update algorithm             .... Taylor
   Preconditioner                       .... Diag
   Full preconditioner red. dimension   ....   250
 SOSCF                  CNVSOSCF        .... on
   Start iteration      SOSCFMaxIt      ....   150
   Startup grad/error   SOSCFStart      ....  0.003300
   Hessian update       SOSCFHessUp     .... L-BFGS
 Level Shifting         CNVShift        .... on
   Level shift para.    LevelShift      ....    0.2500
   Turn off err/grad.   ShiftErr        ....    0.0010
 Zerner damping         CNVZerner       .... off
 Static damping         CNVDamp         .... on
   Fraction old density DampFac         ....    0.7000
   Max. Damping (<1)    DampMax         ....    0.9800
   Min. Damping (>=0)   DampMin         ....    0.0000
   Turn off err/grad.   DampErr         ....    0.1000

SCF Procedure:
 Maximum # iterations   MaxIter         ....   125
 SCF integral mode      SCFMode         .... Direct
   Integral package                     .... SHARK and LIBINT hybrid scheme
 Reset frequency        DirectResetFreq ....    20
 Integral Threshold     Thresh          ....  1.000e-10 Eh
 Primitive CutOff       TCut            ....  1.000e-11 Eh

Convergence Tolerance:
 Convergence Check Mode ConvCheckMode   .... Total+1el-Energy
 Convergence forced     ConvForced      .... 0
 Energy Change          TolE            ....  1.000e-06 Eh
 1-El. energy change                    ....  1.000e-03 Eh
 Orbital Gradient       TolG            ....  5.000e-05
 Orbital Rotation angle TolX            ....  5.000e-05
 DIIS Error             TolErr          ....  1.000e-06

------------------------------
INITIAL GUESS: MODEL POTENTIAL
------------------------------
Loading Hartree-Fock densities                     ... done
Calculating cut-offs                               ... done
Initializing the effective Hamiltonian             ... done
Setting up the integral package (SHARK)            ... done
Starting the Coulomb interaction                   ... done (   0.0 sec)
Making the grid                                    ... done (   0.0 sec)
Mapping shells                                     ... done
Starting the XC term evaluation                    ... done (   0.0 sec)
  promolecular density results
     # of electrons  =     23.998778654
     EX              =    -20.784728703
     EC              =     -0.816683742
     EX+EC           =    -21.601412444
Transforming the Hamiltonian                       ... done (   0.0 sec)
Diagonalizing the Hamiltonian                      ... done (   0.0 sec)
Back transforming the eigenvectors                 ... done (   0.0 sec)
Now organizing SCF variables                       ... done
                      ------------------
                      INITIAL GUESS DONE (   0.1 sec)
                      ------------------
             **** ENERGY FILE WAS UPDATED (nbo.en.tmp) ****
Finished Guess after   0.2 sec
Maximum memory used throughout the entire GUESS-calculation: 7.5 MB

-------------------------------------------------------------------------------------------
                                      ORCA LEAN-SCF
                              memory conserving SCF solver
-------------------------------------------------------------------------------------------

----------------------------------------D-I-I-S--------------------------------------------
Iteration    Energy (Eh)           Delta-E    RMSDP     MaxDP     DIISErr   Damp  Time(sec)
-------------------------------------------------------------------------------------------
               ***  Starting incremental Fock matrix formation  ***
    1    -169.6053497471643823     0.00e+00  7.48e-03  9.37e-02  2.67e-01  0.700   0.5
    2    -169.6881721212816387    -8.28e-02  4.58e-03  5.70e-02  1.33e-01  0.700   0.3
                               ***Turning on AO-DIIS***
    3    -169.7152073368435481    -2.70e-02  1.51e-03  1.97e-02  4.86e-02  0.700   0.3
    4    -169.7325261855516487    -1.73e-02  2.08e-03  2.13e-02  1.87e-02  0.000   0.2
    5    -169.7721938265779897    -3.97e-02  6.48e-04  6.51e-03  1.15e-02  0.000   0.2
                              *** Initializing SOSCF ***
---------------------------------------S-O-S-C-F--------------------------------------
Iteration    Energy (Eh)           Delta-E    RMSDP     MaxDP     MaxGrad    Time(sec)
--------------------------------------------------------------------------------------
    6    -169.7724451866994002    -2.51e-04  2.10e-04  2.40e-03  1.96e-03     0.2
               *** Restarting incremental Fock matrix formation ***
    7    -169.7724540830363651    -8.90e-06  1.51e-04  1.77e-03  3.36e-04     0.4
    8    -169.7724552990603968    -1.22e-06  3.33e-05  4.77e-04  3.03e-04     0.3
    9    -169.7724558799948227    -5.81e-07  2.33e-05  2.54e-04  7.43e-05     0.3
                 **** Energy Check signals convergence ****

               *****************************************************
               *                     SUCCESS                       *
               *           SCF CONVERGED AFTER   9 CYCLES          *
               *****************************************************

Recomputing exchange energy using gridx3       ... done (    0.512 sec)
Old exchange energy                            :     -4.218384553 Eh
New exchange energy                            :     -4.218368134 Eh
Exchange energy change after final integration :      0.000016419 Eh
Total energy after final integration           :   -169.772439461 Eh
             **** ENERGY FILE WAS UPDATED (nbo.en.tmp) ****

----------------
TOTAL SCF ENERGY
----------------

Total Energy       :       -169.77243946065238 Eh           -4619.74294 eV

Components:
Nuclear Repulsion  :         70.89781721119903 Eh            1929.22769 eV
Electronic Energy  :       -240.67027309119385 Eh           -6548.97107 eV
One Electron Energy:       -371.34109181972133 Eh          -10104.70482 eV
Two Electron Energy:        130.67081872852748 Eh            3555.73375 eV

Virial components:
Potential Energy   :       -338.64749346045443 Eh           -9215.06678 eV
Kinetic Energy     :        168.87505399980205 Eh            4595.32384 eV
Virial Ratio       :          2.00531390184397

DFT components:
N(Alpha)           :       11.999999726366 electrons
N(Beta)            :       11.999999726366 electrons
N(Total)           :       23.999999452731 electrons
E(X)               :      -16.784307374212 Eh       
E(C)               :       -0.970080691864 Eh       
E(XC)              :      -17.754388066076 Eh       

---------------
SCF CONVERGENCE
---------------

  Last Energy change         ...    5.8093e-07  Tolerance :   1.0000e-06
  Last MAX-Density change    ...    2.5419e-04  Tolerance :   1.0000e-05
  Last RMS-Density change    ...    2.3336e-05  Tolerance :   1.0000e-06
  Last DIIS Error            ...    1.9593e-03  Tolerance :   1.0000e-06
  Last Orbital Gradient      ...    7.4276e-05  Tolerance :   5.0000e-05
  Last Orbital Rotation      ...    1.8919e-04  Tolerance :   5.0000e-05


----------------
ORBITAL ENERGIES
----------------

  NO   OCC          E(Eh)            E(eV) 
   0   2.0000     -19.135488      -520.7031 
   1   2.0000     -14.316760      -389.5788 
   2   2.0000     -10.294221      -280.1200 
   3   2.0000      -1.046469       -28.4759 
   4   2.0000      -0.888760       -24.1844 
   5   2.0000      -0.609062       -16.5734 
   6   2.0000      -0.524931       -14.2841 
   7   2.0000      -0.496993       -13.5239 
   8   2.0000      -0.442843       -12.0504 
   9   2.0000      -0.369126       -10.0444 
  10   2.0000      -0.263954        -7.1826 
  11   2.0000      -0.244573        -6.6552 
  12   0.0000      -0.025535        -0.6948 
  13   0.0000       0.057917         1.5760 
  14   0.0000       0.104308         2.8384 
  15   0.0000       0.122261         3.3269 
  16   0.0000       0.273403         7.4397 
  17   0.0000       0.349348         9.5062 
  18   0.0000       0.469884        12.7862 
  19   0.0000       0.474250        12.9050 
  20   0.0000       0.520354        14.1595 
  21   0.0000       0.574019        15.6199 
  22   0.0000       0.612591        16.6695 
*Only the first 10 virtual orbitals were printed.

                    ********************************
                    * MULLIKEN POPULATION ANALYSIS *
                    ********************************

-----------------------
MULLIKEN ATOMIC CHARGES
-----------------------
   0 C :    0.163832
   1 O :   -0.178818
   2 N :   -0.186993
   3 H :   -0.011525
   4 H :    0.107418
   5 H :    0.106086
Sum of atomic charges:   -0.0000000

--------------------------------
MULLIKEN REDUCED ORBITAL CHARGES
--------------------------------
  0 C s       :     3.057958  s :     3.057958
      pz      :     0.818865  p :     2.595870
      px      :     0.893625
      py      :     0.883381
      dz2     :     0.014758  d :     0.182339
      dxz     :     0.028995
      dyz     :     0.019608
      dx2y2   :     0.062119
      dxy     :     0.056858

  1 O s       :     3.749109  s :     3.749109
      pz      :     1.304080  p :     4.411512
      px      :     1.681822
      py      :     1.425610
      dz2     :     0.002764  d :     0.018198
      dxz     :     0.002503
      dyz     :     0.004068
      dx2y2   :     0.003696
      dxy     :     0.005166

  2 N s       :     3.282514  s :     3.282514
      pz      :     1.080058  p :     3.887381
      px      :     1.030792
      py      :     1.776530
      dz2     :     0.003073  d :     0.017098
      dxz     :     0.006456
      dyz     :     0.000576
      dx2y2   :     0.003751
      dxy     :     0.003241

  3 H s       :     0.987025  s :     0.987025
      pz      :     0.005632  p :     0.024500
      px      :     0.005586
      py      :     0.013282

  4 H s       :     0.834628  s :     0.834628
      pz      :     0.024665  p :     0.057954
      px      :     0.014417
      py      :     0.018872

  5 H s       :     0.835647  s :     0.835647
      pz      :     0.024748  p :     0.058267
      px      :     0.014770
      py      :     0.018749



                     *******************************
                     * LOEWDIN POPULATION ANALYSIS *
                     *******************************

----------------------
LOEWDIN ATOMIC CHARGES
----------------------
   0 C :   -0.090612
   1 O :    0.002159
   2 N :   -0.008822
   3 H :   -0.018200
   4 H :    0.058354
   5 H :    0.057121

-------------------------------
LOEWDIN REDUCED ORBITAL CHARGES
-------------------------------
  0 C s       :     2.856595  s :     2.856595
      pz      :     0.815523  p :     2.759979
      px      :     0.977521
      py      :     0.966935
      dz2     :     0.036328  d :     0.474038
      dxz     :     0.063352
      dyz     :     0.052305
      dx2y2   :     0.164575
      dxy     :     0.157477

  1 O s       :     3.508226  s :     3.508226
      pz      :     1.303736  p :     4.458463
      px      :     1.675299
      py      :     1.479428
      dz2     :     0.003824  d :     0.031151
      dxz     :     0.003999
      dyz     :     0.007169
      dx2y2   :     0.006184
      dxy     :     0.009975

  2 N s       :     2.978305  s :     2.978305
      pz      :     1.173068  p :     3.971244
      px      :     1.133608
      py      :     1.664568
      dz2     :     0.012709  d :     0.059273
      dxz     :     0.023316
      dyz     :     0.002228
      dx2y2   :     0.012487
      dxy     :     0.008534

  3 H s       :     0.943583  s :     0.943583
      pz      :     0.017778  p :     0.074617
      px      :     0.018441
      py      :     0.038398

  4 H s       :     0.795481  s :     0.795481
      pz      :     0.057880  p :     0.146165
      px      :     0.033139
      py      :     0.055147

  5 H s       :     0.795504  s :     0.795504
      pz      :     0.058205  p :     0.147375
      px      :     0.034349
      py      :     0.054821



                      *****************************
                      * MAYER POPULATION ANALYSIS *
                      *****************************

  NA   - Mulliken gross atomic population
  ZA   - Total nuclear charge
  QA   - Mulliken gross atomic charge
  VA   - Mayer's total valence
  BVA  - Mayer's bonded valence
  FA   - Mayer's free valence

  ATOM       NA         ZA         QA         VA         BVA        FA
  0 C      5.8362     6.0000     0.1638     4.3504     4.3504     0.0000
  1 O      8.1788     8.0000    -0.1788     2.3181     2.3181    -0.0000
  2 N      7.1870     7.0000    -0.1870     3.0855     3.0855    -0.0000
  3 H      1.0115     1.0000    -0.0115     0.9682     0.9682    -0.0000
  4 H      0.8926     1.0000     0.1074     1.0197     1.0197    -0.0000
  5 H      0.8939     1.0000     0.1061     1.0182     1.0182    -0.0000

  Mayer bond orders larger than 0.100000
B(  0-C ,  1-O ) :   2.2401 B(  0-C ,  2-N ) :   1.1473 B(  0-C ,  3-H ) :   0.9241 
B(  2-N ,  4-H ) :   0.9711 B(  2-N ,  5-H ) :   0.9709 

Now starting NBO....

 *********************************** NBO 7.0 ***********************************
             N A T U R A L   A T O M I C   O R B I T A L   A N D
          N A T U R A L   B O N D   O R B I T A L   A N A L Y S I S
 **************************** Suman Saurav (S102030) ***************************
  (c) Copyright 1996-2020 Board of Regents of the University of Wisconsin System
      on behalf of the Theoretical Chemistry Institute.  All rights reserved.

          Cite this program [NBO 7.0.9 (21-May-2020)] as:

          NBO 7.0.  E. D. Glendening, J. K. Badenhoop, A. E. Reed,
          J. E. Carpenter, J. A. Bohmann, C. M. Morales, P. Karafiloglou,
          C. R. Landis, and F. Weinhold, Theoretical Chemistry Institute,
          University of Wisconsin, Madison, WI (2018)

       /NPA    / : Natural Population Analysis
       /NBO    / : Natural Bond Orbital Analysis
       /AONBO  / : Checkpoint the AO to NBO transformation
       /ARCHIVE/ : Write the archive file to lfn47

 Job title: ORCA Job: nbo


 NATURAL POPULATIONS:  Natural atomic orbital occupancies

  NAO Atom No lang   Type(AO)    Occupancy      Energy
 -------------------------------------------------------
   1    C  1  s      Cor( 1s)     1.99998     -10.29405
   2    C  1  s      Val( 2s)     0.88989      -0.12021
   3    C  1  s      Ryd( 3s)     0.01042       0.68250
   4    C  1  px     Val( 2p)     0.82252       0.03611
   5    C  1  px     Ryd( 3p)     0.00998       0.46493
   6    C  1  py     Val( 2p)     0.88209      -0.01052
   7    C  1  py     Ryd( 3p)     0.00825       0.58293
   8    C  1  pz     Val( 2p)     0.77314      -0.09126
   9    C  1  pz     Ryd( 3p)     0.00481       0.48932
  10    C  1  dxy    Ryd( 3d)     0.00316       1.88445
  11    C  1  dxz    Ryd( 3d)     0.00137       1.65374
  12    C  1  dyz    Ryd( 3d)     0.00151       1.67207
  13    C  1  dx2y2  Ryd( 3d)     0.00411       1.86869
  14    C  1  dz2    Ryd( 3d)     0.00131       1.54439

  15    O  2  s      Cor( 1s)     1.99999     -19.13528
  16    O  2  s      Val( 2s)     1.72068      -0.68400
  17    O  2  s      Ryd( 3s)     0.00104       1.93198
  18    O  2  px     Val( 2p)     1.80534      -0.26401
  19    O  2  px     Ryd( 3p)     0.00180       1.10102
  20    O  2  py     Val( 2p)     1.58840      -0.26779
  21    O  2  py     Ryd( 3p)     0.00081       1.04448
  22    O  2  pz     Val( 2p)     1.39284      -0.24858
  23    O  2  pz     Ryd( 3p)     0.00038       1.03372
  24    O  2  dxy    Ryd( 3d)     0.00216       2.99042
  25    O  2  dxz    Ryd( 3d)     0.00102       2.77342
  26    O  2  dyz    Ryd( 3d)     0.00162       2.88793
  27    O  2  dx2y2  Ryd( 3d)     0.00173       2.89706
  28    O  2  dz2    Ryd( 3d)     0.00107       2.76561

  29    N  3  s      Cor( 1s)     1.99998     -14.31662
  30    N  3  s      Val( 2s)     1.34093      -0.45379
  31    N  3  s      Ryd( 3s)     0.00031       1.38749
  32    N  3  px     Val( 2p)     1.32936      -0.19828
  33    N  3  px     Ryd( 3p)     0.00257       0.86928
  34    N  3  py     Val( 2p)     1.86763      -0.23480
  35    N  3  py     Ryd( 3p)     0.00518       0.81361
  36    N  3  pz     Val( 2p)     1.43696      -0.20597
  37    N  3  pz     Ryd( 3p)     0.00130       0.98800
  38    N  3  dxy    Ryd( 3d)     0.00025       2.11867
  39    N  3  dxz    Ryd( 3d)     0.00064       2.45182
  40    N  3  dyz    Ryd( 3d)     0.00045       2.03555
  41    N  3  dx2y2  Ryd( 3d)     0.00130       2.30143
  42    N  3  dz2    Ryd( 3d)     0.00078       2.27426

  43    H  4  s      Val( 1s)     0.88314       0.02379
  44    H  4  s      Ryd( 2s)     0.00617       0.33823
  45    H  4  px     Ryd( 2p)     0.00029       1.80130
  46    H  4  py     Ryd( 2p)     0.00082       1.98093
  47    H  4  pz     Ryd( 2p)     0.00024       1.66380

  48    H  5  s      Val( 1s)     0.59113       0.09975
  49    H  5  s      Ryd( 2s)     0.00180       0.36398
  50    H  5  px     Ryd( 2p)     0.00053       1.86768
  51    H  5  py     Ryd( 2p)     0.00088       1.63720
  52    H  5  pz     Ryd( 2p)     0.00110       2.10779

  53    H  6  s      Val( 1s)     0.59076       0.10168
  54    H  6  s      Ryd( 2s)     0.00150       0.36019
  55    H  6  px     Ryd( 2p)     0.00056       1.87810
  56    H  6  py     Ryd( 2p)     0.00088       1.62693
  57    H  6  pz     Ryd( 2p)     0.00109       2.11999


 Summary of Natural Population Analysis:

                                     Natural Population
             Natural    ---------------------------------------------
  Atom No    Charge        Core      Valence    Rydberg      Total
 --------------------------------------------------------------------
    C  1    0.58745      1.99998     3.36764    0.04493     5.41255
    O  2   -0.51887      1.99999     6.50726    0.01163     8.51887
    N  3   -0.98766      1.99998     5.97489    0.01279     7.98766
    H  4    0.10933      0.00000     0.88314    0.00753     0.89067
    H  5    0.40455      0.00000     0.59113    0.00432     0.59545
    H  6    0.40521      0.00000     0.59076    0.00403     0.59479
 ====================================================================
 * Total *  0.00000      5.99996    17.91482    0.08523    24.00000

                                 Natural Population
 ---------------------------------------------------------
   Core                       5.99996 ( 99.9993% of    6)
   Valence                   17.91482 ( 99.5268% of   18)
   Natural Minimal Basis     23.91477 ( 99.6449% of   24)
   Natural Rydberg Basis      0.08523 (  0.3551% of   24)
 ---------------------------------------------------------

    Atom No         Natural Electron Configuration
 ----------------------------------------------------------------------------
      C  1      [core]2s( 0.89)2p( 2.48)3s( 0.01)3p( 0.02)3d( 0.01)
      O  2      [core]2s( 1.72)2p( 4.79)3d( 0.01)
      N  3      [core]2s( 1.34)2p( 4.63)3p( 0.01)
      H  4            1s( 0.88)2s( 0.01)
      H  5            1s( 0.59)
      H  6            1s( 0.59)


 NATURAL BOND ORBITAL ANALYSIS:

                            Occupancies       Lewis Structure    Low   High
         Max    Occ     -------------------  -----------------   occ   occ
  Cycle  Ctr   Thresh    Lewis   non-Lewis     CR  BD  nC  LP    (L)   (NL)
 ============================================================================
    1     2     1.90    22.69899   1.30101      3   5   0   4     2      2
    2     2     1.87    23.70890   0.29110      3   6   0   3     0      0
 ----------------------------------------------------------------------------

 Structure accepted: No low occupancy Lewis orbitals

 -------------------------------------------------------
   Core                      5.99996 ( 99.999% of   6)
   Valence Lewis            17.70895 ( 98.383% of  18)
  ==================      =============================
   Total Lewis              23.70890 ( 98.787% of  24)
  -----------------------------------------------------
   Valence non-Lewis         0.24066 (  1.003% of  24)
   Rydberg non-Lewis         0.05044 (  0.210% of  24)
  ==================      =============================
   Total non-Lewis           0.29110 (  1.213% of  24)
 -------------------------------------------------------


     (Occupancy)   Bond orbital / Coefficients / Hybrids
 ------------------ Lewis ------------------------------------------------------
   1. (1.99998) CR ( 1) C  1            s(100.00%)
                                         1.0000  0.0000  0.0000  0.0000  0.0000
                                         0.0000  0.0000  0.0000  0.0000  0.0000
                                         0.0000  0.0000  0.0000  0.0000
   2. (1.99999) CR ( 1) O  2            s(100.00%)
                                         1.0000  0.0000  0.0000  0.0000  0.0000
                                         0.0000  0.0000  0.0000  0.0000  0.0000
                                         0.0000  0.0000  0.0000  0.0000
   3. (1.99998) CR ( 1) N  3            s(100.00%)
                                         1.0000  0.0000  0.0000  0.0000  0.0000
                                         0.0000  0.0000  0.0000  0.0000  0.0000
                                         0.0000  0.0000  0.0000  0.0000
   4. (1.98235) LP ( 1) O  2            s( 58.73%)p 0.70( 41.24%)d 0.00(  0.03%)
                                         0.0000  0.7663 -0.0111 -0.3509  0.0034
                                        -0.4719  0.0039 -0.2581  0.0023 -0.0108
                                        -0.0059 -0.0097  0.0028  0.0060
   5. (1.87638) LP ( 2) O  2            s(  0.04%)p99.99( 99.86%)d 2.41(  0.10%)
                                         0.0000  0.0202 -0.0027  0.8495 -0.0083
                                        -0.4739  0.0057 -0.2284  0.0029  0.0127
                                         0.0066 -0.0112  0.0255 -0.0048
   6. (1.92398) LP ( 1) N  3            s(  0.00%)p 1.00( 99.99%)d 0.00(  0.00%)
                                         0.0000  0.0043  0.0004 -0.0436  0.0010
                                         0.9484 -0.0389  0.3113 -0.0115 -0.0066
                                        -0.0001  0.0002 -0.0007 -0.0002
   7. (1.99787) BD ( 1) C  1- O  2
               ( 32.95%)   0.5741* C  1 s( 32.69%)p 2.05( 67.08%)d 0.01(  0.23%)
                                         0.0000  0.5687  0.0595 -0.4123 -0.0423
                                        -0.6580 -0.0466 -0.2510 -0.0297  0.0365
                                         0.0160  0.0161 -0.0190 -0.0077
               ( 67.05%)   0.8188* O  2 s( 41.00%)p 1.43( 58.79%)d 0.01(  0.21%)
                                         0.0000  0.6400  0.0207  0.3885  0.0075
                                         0.5409  0.0118  0.3796  0.0066  0.0318
                                         0.0183  0.0233 -0.0113 -0.0084
   8. (1.98713) BD ( 2) C  1- O  2
               ( 35.20%)   0.5933* C  1 s(  0.30%)p99.99( 99.38%)d 1.07(  0.32%)
                                         0.0000  0.0546  0.0020 -0.0337 -0.0034
                                         0.4133 -0.0303 -0.9046  0.0520 -0.0101
                                         0.0234  0.0302  0.0183  0.0360
               ( 64.80%)   0.8050* O  2 s(  0.23%)p99.99( 99.60%)d 0.75(  0.17%)
                                         0.0000  0.0477  0.0025  0.0517  0.0005
                                         0.5079  0.0053 -0.8575 -0.0077  0.0132
                                        -0.0177 -0.0184 -0.0149 -0.0257
   9. (1.99588) BD ( 1) C  1- N  3
               ( 37.37%)   0.6113* C  1 s( 32.86%)p 2.04( 66.94%)d 0.01(  0.20%)
                                         0.0000  0.5721  0.0356  0.8165  0.0483
                                        -0.0170  0.0046 -0.0039  0.0023  0.0015
                                         0.0006 -0.0047  0.0405 -0.0189
               ( 62.63%)   0.7914* N  3 s( 39.39%)p 1.54( 60.51%)d 0.00(  0.10%)
                                         0.0000  0.6276  0.0064 -0.7768 -0.0162
                                        -0.0343 -0.0008 -0.0129  0.0010  0.0028
                                         0.0012 -0.0056  0.0295 -0.0093
  10. (1.99166) BD ( 1) C  1- H  4
               ( 57.78%)   0.7601* C  1 s( 34.66%)p 1.88( 65.27%)d 0.00(  0.07%)
                                         0.0000  0.5862 -0.0542 -0.3928 -0.0015
                                         0.6217 -0.0146  0.3340 -0.0094 -0.0163
                                        -0.0076  0.0123 -0.0144 -0.0002
               ( 42.22%)   0.6498* H  4 s( 99.87%)p 0.00(  0.13%)
                                         0.9992 -0.0176  0.0153 -0.0290 -0.0145
  11. (1.97636) BD ( 1) N  3- H  5
               ( 70.36%)   0.8388* N  3 s( 29.84%)p 2.35( 70.10%)d 0.00(  0.06%)
                                         0.0000  0.5463 -0.0026  0.4415  0.0265
                                         0.2377  0.0056 -0.6698 -0.0136  0.0046
                                        -0.0126 -0.0129  0.0049  0.0147
               ( 29.64%)   0.5444* H  5 s( 99.76%)p 0.00(  0.24%)
                                         0.9988 -0.0041 -0.0250 -0.0130  0.0395
  12. (1.97732) BD ( 1) N  3- H  6
               ( 70.39%)   0.8390* N  3 s( 30.63%)p 2.26( 69.31%)d 0.00(  0.06%)
                                         0.0000  0.5535 -0.0015  0.4445  0.0268
                                        -0.2031 -0.0040  0.6733  0.0145 -0.0031
                                         0.0137 -0.0099  0.0064  0.0159
               ( 29.61%)   0.5441* H  6 s( 99.76%)p 0.00(  0.24%)
                                         0.9988 -0.0036 -0.0261  0.0119 -0.0393
 ---------------- non-Lewis ----------------------------------------------------
  13. (0.03695) BD*( 1) C  1- O  2
               ( 67.05%)   0.8188* C  1 s( 32.69%)p 2.05( 67.08%)d 0.01(  0.23%)
                                         0.0000  0.5687  0.0595 -0.4123 -0.0423
                                        -0.6580 -0.0466 -0.2510 -0.0297  0.0365
                                         0.0160  0.0161 -0.0190 -0.0077
               ( 32.95%)  -0.5741* O  2 s( 41.00%)p 1.43( 58.79%)d 0.01(  0.21%)
                                         0.0000  0.6400  0.0207  0.3885  0.0075
                                         0.5409  0.0118  0.3796  0.0066  0.0318
                                         0.0183  0.0233 -0.0113 -0.0084
  14. (0.05155) BD*( 2) C  1- O  2
               ( 64.80%)   0.8050* C  1 s(  0.30%)p99.99( 99.38%)d 1.07(  0.32%)
                                         0.0000  0.0546  0.0020 -0.0337 -0.0034
                                         0.4133 -0.0303 -0.9046  0.0520 -0.0101
                                         0.0234  0.0302  0.0183  0.0360
               ( 35.20%)  -0.5933* O  2 s(  0.23%)p99.99( 99.60%)d 0.75(  0.17%)
                                         0.0000  0.0477  0.0025  0.0517  0.0005
                                         0.5079  0.0053 -0.8575 -0.0077  0.0132
                                        -0.0177 -0.0184 -0.0149 -0.0257
  15. (0.05864) BD*( 1) C  1- N  3
               ( 62.63%)   0.7914* C  1 s( 32.86%)p 2.04( 66.94%)d 0.01(  0.20%)
                                         0.0000  0.5721  0.0356  0.8165  0.0483
                                        -0.0170  0.0046 -0.0039  0.0023  0.0015
                                         0.0006 -0.0047  0.0405 -0.0189
               ( 37.37%)  -0.6113* N  3 s( 39.39%)p 1.54( 60.51%)d 0.00(  0.10%)
                                         0.0000  0.6276  0.0064 -0.7768 -0.0162
                                        -0.0343 -0.0008 -0.0129  0.0010  0.0028
                                         0.0012 -0.0056  0.0295 -0.0093
  16. (0.07443) BD*( 1) C  1- H  4
               ( 42.22%)   0.6498* C  1 s( 34.66%)p 1.88( 65.27%)d 0.00(  0.07%)
                                         0.0000 -0.5862  0.0542  0.3928  0.0015
                                        -0.6217  0.0146 -0.3340  0.0094  0.0163
                                         0.0076 -0.0123  0.0144  0.0002
               ( 57.78%)  -0.7601* H  4 s( 99.87%)p 0.00(  0.13%)
                                        -0.9992  0.0176 -0.0153  0.0290  0.0145
  17. (0.00955) BD*( 1) N  3- H  5
               ( 29.64%)   0.5444* N  3 s( 29.84%)p 2.35( 70.10%)d 0.00(  0.06%)
                                         0.0000 -0.5463  0.0026 -0.4415 -0.0265
                                        -0.2377 -0.0056  0.6698  0.0136 -0.0046
                                         0.0126  0.0129 -0.0049 -0.0147
               ( 70.36%)  -0.8388* H  5 s( 99.76%)p 0.00(  0.24%)
                                        -0.9988  0.0041  0.0250  0.0130 -0.0395
  18. (0.00953) BD*( 1) N  3- H  6
               ( 29.61%)   0.5441* N  3 s( 30.63%)p 2.26( 69.31%)d 0.00(  0.06%)
                                         0.0000 -0.5535  0.0015 -0.4445 -0.0268
                                         0.2031  0.0040 -0.6733 -0.0145  0.0031
                                        -0.0137  0.0099 -0.0064 -0.0159
               ( 70.39%)  -0.8390* H  6 s( 99.76%)p 0.00(  0.24%)
                                        -0.9988  0.0036  0.0261 -0.0119  0.0393
  19. (0.01748) RY ( 1) C  1            s( 14.70%)p 5.58( 82.00%)d 0.22(  3.30%)
                                         0.0000 -0.0322  0.3820  0.0574 -0.6435
                                         0.0641 -0.5591  0.0278 -0.2917  0.0913
                                        -0.0046  0.0270 -0.1536  0.0188
  20. (0.00888) RY ( 2) C  1            s( 38.36%)p 0.31( 11.97%)d 1.29( 49.67%)
                                         0.0000 -0.0225  0.6190 -0.0611  0.3304
                                         0.0516 -0.0528  0.0220 -0.0293  0.3223
                                         0.1503 -0.2546  0.5365 -0.1327
  21. (0.00278) RY ( 3) C  1            s(  0.17%)p99.99( 29.47%)d99.99( 70.36%)
                                         0.0000 -0.0077  0.0408 -0.0191  0.2970
                                        -0.0305 -0.4228  0.0037 -0.1626 -0.7773
                                        -0.1440 -0.0507  0.2377  0.1399
  22. (0.00239) RY ( 4) C  1            s(  0.29%)p99.99( 59.77%)d99.99( 39.94%)
                                         0.0000  0.0013  0.0541  0.0042 -0.1090
                                        -0.0247 -0.2409  0.0701  0.7227 -0.1146
                                         0.5537  0.1865  0.0721  0.1991
  23. (0.00026) RY ( 5) C  1            s( 11.38%)p 3.00( 34.10%)d 4.79( 54.52%)
                                         0.0000 -0.0167  0.3369  0.0019  0.5530
                                         0.0203 -0.1862  0.0093  0.0065  0.1155
                                        -0.0109  0.2675 -0.6763  0.0529
  24. (0.00000) RY ( 6) C  1            s(  0.11%)p13.56(  1.49%)d99.99( 98.40%)
  25. (0.00000) RY ( 7) C  1            s( 23.38%)p 1.56( 36.57%)d 1.71( 40.05%)
  26. (0.00000) RY ( 8) C  1            s( 10.11%)p 3.43( 34.67%)d 5.46( 55.22%)
  27. (0.00000) RY ( 9) C  1            s(  0.99%)p11.37( 11.29%)d88.31( 87.72%)
  28. (0.00218) RY ( 1) O  2            s(  0.11%)p99.99( 98.59%)d12.25(  1.30%)
                                         0.0000 -0.0002  0.0326 -0.0061 -0.8404
                                         0.0027  0.4561  0.0008  0.2676 -0.0630
                                        -0.0288  0.0434 -0.0780  0.0154
  29. (0.00039) RY ( 2) O  2            s( 65.32%)p 0.40( 26.35%)d 0.13(  8.34%)
                                         0.0000 -0.0060  0.8082 -0.0109  0.2021
                                        -0.0063  0.0787 -0.0102  0.4649 -0.1059
                                         0.0154 -0.0489  0.2609 -0.0376
  30. (0.00007) RY ( 3) O  2            s(  0.34%)p99.99( 79.85%)d59.09( 19.81%)
  31. (0.00001) RY ( 4) O  2            s( 14.78%)p 3.49( 51.60%)d 2.28( 33.62%)
  32. (0.00000) RY ( 5) O  2            s(  7.09%)p 3.20( 22.68%)d 9.91( 70.23%)
  33. (0.00000) RY ( 6) O  2            s( 10.64%)p 0.15(  1.55%)d 8.25( 87.81%)
  34. (0.00000) RY ( 7) O  2            s(  1.64%)p 1.72(  2.81%)d58.31( 95.55%)
  35. (0.00000) RY ( 8) O  2            s(  0.07%)p99.99(  7.42%)d99.99( 92.51%)
  36. (0.00000) RY ( 9) O  2            s(  0.02%)p99.99(  9.66%)d99.99( 90.32%)
  37. (0.00266) RY ( 1) N  3            s(  0.18%)p99.99( 96.23%)d19.57(  3.58%)
                                         0.0000  0.0019  0.0427 -0.0008 -0.0462
                                         0.0368  0.9058  0.0111  0.3718 -0.1685
                                        -0.0729  0.0417 -0.0139 -0.0142
  38. (0.00059) RY ( 2) N  3            s( 41.30%)p 1.14( 47.12%)d 0.28( 11.58%)
                                         0.0000  0.0201  0.6424  0.0254 -0.6743
                                         0.0010 -0.0833 -0.0027  0.0949  0.1531
                                         0.0348  0.1549 -0.2589  0.0076
  39. (0.00033) RY ( 3) N  3            s(  1.10%)p30.17( 33.18%)d59.75( 65.72%)
                                         0.0000 -0.0006  0.1049 -0.0005 -0.0138
                                         0.0017  0.2178 -0.0032 -0.5331 -0.2707
                                         0.7298  0.1543  0.0655  0.1524
  40. (0.00005) RY ( 4) N  3            s( 44.74%)p 0.69( 30.74%)d 0.55( 24.52%)
  41. (0.00001) RY ( 5) N  3            s(  1.89%)p 3.11(  5.90%)d48.67( 92.20%)
  42. (0.00000) RY ( 6) N  3            s(  8.87%)p 0.53(  4.67%)d 9.74( 86.46%)
  43. (0.00000) RY ( 7) N  3            s(  0.59%)p29.62( 17.52%)d99.99( 81.89%)
  44. (0.00000) RY ( 8) N  3            s(  1.10%)p21.91( 24.16%)d67.77( 74.74%)
  45. (0.00000) RY ( 9) N  3            s(  0.34%)p99.99( 40.56%)d99.99( 59.10%)
  46. (0.00647) RY ( 1) H  4            s( 99.68%)p 0.00(  0.32%)
                                         0.0194  0.9982 -0.0039  0.0475  0.0309
  47. (0.00012) RY ( 2) H  4            s(  0.10%)p99.99( 99.90%)
                                        -0.0074  0.0302 -0.7697 -0.6299 -0.0993
  48. (0.00006) RY ( 3) H  4            s(  0.07%)p99.99( 99.93%)
  49. (0.00005) RY ( 4) H  4            s(  0.29%)p99.99( 99.71%)
  50. (0.00195) RY ( 1) H  5            s( 91.64%)p 0.09(  8.36%)
                                         0.0147  0.9572  0.1658 -0.1159 -0.2065
  51. (0.00081) RY ( 2) H  5            s(  2.75%)p35.41( 97.25%)
                                         0.0040  0.1657  0.0087  0.9570  0.2381
  52. (0.00020) RY ( 3) H  5            s(  0.09%)p99.99( 99.91%)
                                         0.0052  0.0301 -0.7983  0.1472 -0.5833
  53. (0.00002) RY ( 4) H  5            s(  5.75%)p16.39( 94.25%)
  54. (0.00160) RY ( 1) H  6            s( 93.46%)p 0.07(  6.54%)
                                         0.0152  0.9666  0.1482  0.0271  0.2066
  55. (0.00085) RY ( 2) H  6            s(  0.64%)p99.99( 99.36%)
                                         0.0017  0.0803  0.0450 -0.9548 -0.2827
  56. (0.00021) RY ( 3) H  6            s(  0.01%)p 1.00( 99.99%)
                                         0.0038  0.0078 -0.7999 -0.2041  0.5643
  57. (0.00001) RY ( 4) H  6            s(  6.12%)p15.33( 93.88%)


 NHO DIRECTIONALITY AND BOND BENDING (deviation from line of nuclear centers at
                                      the position of maximum hybrid amplitude)

         [Thresholds for printing:  angular deviation  >  1.0 degree]
                                    p- or d-character  > 25.0%
                                    orbital occupancy  >  0.10e

                        Line of Centers        Hybrid 1             Hybrid 2
                        ---------------  -------------------  ------------------
           NBO            Theta   Phi    Theta   Phi    Dev   Theta   Phi    Dev
 ===============================================================================
   4. LP ( 1) O  2          --     --    113.8  233.2   --      --     --    --
   5. LP ( 2) O  2          --     --    102.8  331.8   --      --     --    --
   6. LP ( 1) N  3          --     --    108.4  272.5   --      --     --    --
   7. BD ( 1) C  1- O  2  113.1  234.8   108.3  238.2   5.8    61.3   54.4   5.6
   8. BD ( 2) C  1- O  2  113.1  234.8   157.3   98.7  83.9   147.7   82.7  84.1
   9. BD ( 1) C  1- N  3   88.6    2.7    89.9  359.6   3.4     --     --    --
  10. BD ( 1) C  1- H  4   65.0  117.5    65.3  120.8   3.1     --     --    --
  11. BD ( 1) N  3- H  5  145.1   30.2   143.7   28.9   1.5     --     --    --
  12. BD ( 1) N  3- H  6   34.3  335.5    35.4  335.3   1.1     --     --    --


 SECOND ORDER PERTURBATION THEORY ANALYSIS OF FOCK MATRIX IN NBO BASIS

     Threshold for printing:   0.50 kcal/mol
                                                          E(2) E(NL)-E(L) F(L,NL)
      Donor (L) NBO              Acceptor (NL) NBO      kcal/mol   a.u.    a.u.
 ===============================================================================

 within unit  1
    4. LP ( 1) O  2            15. BD*( 1) C  1- N  3      0.80    1.05   0.026
    4. LP ( 1) O  2            16. BD*( 1) C  1- H  4      0.91    0.97   0.027
    4. LP ( 1) O  2            19. RY ( 1) C  1            7.74    1.10   0.082
    5. LP ( 2) O  2            15. BD*( 1) C  1- N  3     22.89    0.75   0.117
    5. LP ( 2) O  2            16. BD*( 1) C  1- H  4     20.93    0.67   0.106
    5. LP ( 2) O  2            20. RY ( 2) C  1            3.27    1.58   0.064
    5. LP ( 2) O  2            23. RY ( 5) C  1            0.81    1.53   0.031
    5. LP ( 2) O  2            33. RY ( 6) O  2            0.53    3.04   0.036
    6. LP ( 1) N  3            13. BD*( 1) C  1- O  2     15.34    0.85   0.102
    6. LP ( 1) N  3            14. BD*( 2) C  1- O  2      0.82    0.26   0.013
    6. LP ( 1) N  3            16. BD*( 1) C  1- H  4      9.43    0.65   0.070
    6. LP ( 1) N  3            21. RY ( 3) C  1            0.88    1.74   0.035
    6. LP ( 1) N  3            51. RY ( 2) H  5            1.22    1.79   0.042
    6. LP ( 1) N  3            55. RY ( 2) H  6            1.25    1.81   0.042
    7. BD ( 1) C  1- O  2      37. RY ( 1) N  3            0.56    1.73   0.028
    8. BD ( 2) C  1- O  2      17. BD*( 1) N  3- H  5      2.25    0.82   0.038
    8. BD ( 2) C  1- O  2      18. BD*( 1) N  3- H  6      2.91    0.82   0.044
    9. BD ( 1) C  1- N  3      28. RY ( 1) O  2            0.81    1.87   0.035
   10. BD ( 1) C  1- H  4      17. BD*( 1) N  3- H  5      1.06    0.94   0.028
   10. BD ( 1) C  1- H  4      28. RY ( 1) O  2            1.19    1.65   0.040
   10. BD ( 1) C  1- H  4      37. RY ( 1) N  3            1.32    1.34   0.038
   11. BD ( 1) N  3- H  5      14. BD*( 2) C  1- O  2      5.54    0.62   0.052
   11. BD ( 1) N  3- H  5      22. RY ( 4) C  1            0.94    1.53   0.034
   12. BD ( 1) N  3- H  6      14. BD*( 2) C  1- O  2      5.59    0.63   0.053
   12. BD ( 1) N  3- H  6      22. RY ( 4) C  1            1.03    1.54   0.035


 NATURAL BOND ORBITALS (Summary):

                                                     Principal Delocalizations
           NBO                 Occupancy    Energy   (geminal,vicinal,remote)
 ===============================================================================
 Molecular unit  1  (CH3NO)
 ------ Lewis --------------------------------------
    1. CR ( 1) C  1             1.99998   -10.29405
    2. CR ( 1) O  2             1.99999   -19.13528
    3. CR ( 1) N  3             1.99998   -14.31662
    4. LP ( 1) O  2             1.98235    -0.55946  19(v),16(v),15(v)
    5. LP ( 2) O  2             1.87638    -0.25697  15(v),16(v),20(v),23(v)
                                                     33(g)
    6. LP ( 1) N  3             1.92398    -0.23945  13(v),16(v),55(v),51(v)
                                                     21(v),14(v)
    7. BD ( 1) C  1- O  2       1.99787    -0.90256  37(v)
    8. BD ( 2) C  1- O  2       1.98713    -0.38087  18(v),17(v)
    9. BD ( 1) C  1- N  3       1.99588    -0.72613  28(v)
   10. BD ( 1) C  1- H  4       1.99166    -0.50857  37(v),28(v),17(v)
   11. BD ( 1) N  3- H  5       1.97636    -0.60244  14(v),22(v)
   12. BD ( 1) N  3- H  6       1.97732    -0.60759  14(v),22(v)
 ------ non-Lewis ----------------------------------
   13. BD*( 1) C  1- O  2       0.03695     0.60787
   14. BD*( 2) C  1- O  2       0.05155     0.01839
   15. BD*( 1) C  1- N  3       0.05864     0.48987
   16. BD*( 1) C  1- H  4       0.07443     0.41159
   17. BD*( 1) N  3- H  5       0.00955     0.43442
   18. BD*( 1) N  3- H  6       0.00953     0.43926
   19. RY ( 1) C  1             0.01748     0.53793
   20. RY ( 2) C  1             0.00888     1.32632
   21. RY ( 3) C  1             0.00278     1.50131
   22. RY ( 4) C  1             0.00239     0.92980
   23. RY ( 5) C  1             0.00026     1.26932
   24. RY ( 6) C  1             0.00000     1.63878
   25. RY ( 7) C  1             0.00000     1.14331
   26. RY ( 8) C  1             0.00000     1.10459
   27. RY ( 9) C  1             0.00000     1.33336
   28. RY ( 1) O  2             0.00218     1.14126
   29. RY ( 2) O  2             0.00039     1.92918
   30. RY ( 3) O  2             0.00007     1.31043
   31. RY ( 4) O  2             0.00001     1.80662
   32. RY ( 5) O  2             0.00000     2.56423
   33. RY ( 6) O  2             0.00000     2.78257
   34. RY ( 7) O  2             0.00000     2.63222
   35. RY ( 8) O  2             0.00000     2.76096
   36. RY ( 9) O  2             0.00000     2.49071
   37. RY ( 1) N  3             0.00266     0.82656
   38. RY ( 2) N  3             0.00059     1.46894
   39. RY ( 3) N  3             0.00033     2.08794
   40. RY ( 4) N  3             0.00005     1.42052
   41. RY ( 5) N  3             0.00001     2.07786
   42. RY ( 6) N  3             0.00000     2.13986
   43. RY ( 7) N  3             0.00000     1.84912
   44. RY ( 8) N  3             0.00000     1.74385
   45. RY ( 9) N  3             0.00000     1.61564
   46. RY ( 1) H  4             0.00647     0.34798
   47. RY ( 2) H  4             0.00012     1.73577
   48. RY ( 3) H  4             0.00006     1.60412
   49. RY ( 4) H  4             0.00005     2.08049
   50. RY ( 1) H  5             0.00195     0.55942
   51. RY ( 2) H  5             0.00081     1.55025
   52. RY ( 3) H  5             0.00020     1.72891
   53. RY ( 4) H  5             0.00002     2.11633
   54. RY ( 1) H  6             0.00160     0.54982
   55. RY ( 2) H  6             0.00085     1.57256
   56. RY ( 3) H  6             0.00021     1.72687
   57. RY ( 4) H  6             0.00001     2.11402
          -------------------------------
                 Total Lewis   23.70890  ( 98.7871%)
           Valence non-Lewis    0.24066  (  1.0027%)
           Rydberg non-Lewis    0.05044  (  0.2102%)
          -------------------------------
               Total unit  1   24.00000  (100.0000%)
              Charge unit  1    0.00000

 $CHOOSE
   LONE 2 2 3 1 END
   BOND D 1 2 S 1 3 S 1 4 S 3 5 S 3 6 END
 $END

 NBO analysis completed in 0.06 CPU seconds (0 wall seconds)
 Maximum scratch memory used by NBO was 314177 words (2.40 MB)
Stopping NBO...Storing NBOs: nbo.nbo

                                *** returned from  NBO  program ***

-------
TIMINGS
-------

Total SCF time: 0 days 0 hours 0 min 3 sec 

Total time                  ....       3.474 sec
Sum of individual times     ....       3.472 sec  ( 99.9%)

SCF preparation             ....       0.077 sec  (  2.2%)
Fock matrix formation       ....       3.278 sec  ( 94.4%)
  Startup                   ....       0.001 sec  (  0.0% of F)
  Split-RI-J                ....       0.192 sec  (  5.8% of F)
  Chain of spheres X        ....       2.054 sec  ( 62.7% of F)
  XC integration            ....       1.020 sec  ( 31.1% of F)
    Basis function eval.    ....       0.482 sec  ( 47.3% of XC)
    Density eval.           ....       0.146 sec  ( 14.3% of XC)
    XC-Functional eval.     ....       0.160 sec  ( 15.7% of XC)
    XC-Potential eval.      ....       0.166 sec  ( 16.3% of XC)
Diagonalization             ....       0.000 sec  (  0.0%)
Density matrix formation    ....       0.004 sec  (  0.1%)
Total Energy calculation    ....       0.000 sec  (  0.0%)
Population analysis         ....       0.075 sec  (  2.2%)
Orbital Transformation      ....       0.026 sec  (  0.7%)
Orbital Orthonormalization  ....       0.000 sec  (  0.0%)
DIIS solution               ....       0.009 sec  (  0.3%)
SOSCF solution              ....       0.002 sec  (  0.0%)
Finished LeanSCF after   3.5 sec

Maximum memory used throughout the entire LEANSCF-calculation: 8.1 MB

-------------------------   --------------------
FINAL SINGLE POINT ENERGY      -169.772439460652
-------------------------   --------------------


------------------------------------------------------------------------------
                              ORCA PROPERTY CALCULATIONS
------------------------------------------------------------------------------

GBWName                                 ... nbo.gbw
Number of atoms                         ...      6
Number of basis functions               ...     75
Max core memory                         ...   1024 MB

Electric properties:
Dipole moment                           ... YES
Quadrupole moment                       ...  NO
Static polarizability (Dipole/Dipole)   ...  NO
Static polarizability (Dipole/Quad.)    ...  NO
Static polarizability (Quad./Quad.)     ...  NO
Static polarizability (Velocity)        ...  NO

Atomic electric properties:
Dipole moment                           ...  NO
Quadrupole moment                       ...  NO
Static polarizability                   ...  NO

Choice of electric origin               ... Center of mass
Position of electric origin             ...     2.374515    -0.797492    -0.282136

General magnetic properties:
Magnetizability                         ...  NO

EPR properties:
g-Tensor (aka g-matrix)                 ...  NO
Zero-Field splitting spin-orbit         ...  NO
Zero-field splitting spin-spin          ...  NO
Hyperfine couplings                     ...  NO (   0 nuclei)
Quadrupole couplings                    ...  NO (   0 nuclei)
Contact density                         ...  NO (   0 nuclei)

NMR properties:
Chemical shifts                         ...  NO (   0 nuclei)
Spin-rotation constants                 ...  NO (   0 nuclei)
Spin-spin couplings                     ...  NO (   0 nuclei,    0 pairs)

Choice of magnetic origin               ... GIAO
Position of magnetic origin             ...     0.000000     0.000000     0.000000

Properties with geometric perturbations:
SCF Hessian                             ...  NO
IR spectrum                             ...  NO
VCD spectrum                            ...  NO
X-ray spectroscopy properties:
SCF XES/XAS/RIXS spectra                ...  NO


-------------
DIPOLE MOMENT
-------------

Method             : SCF
Type of density    : Electron Density
Multiplicity       :   1
Irrep              :   0
Energy             :  -169.7724394606523788 Eh
Relativity type    : 
Basis              : AO
                                X                 Y                 Z
Electronic contribution:     -1.425243117      -1.144437952      -0.586161154
Nuclear contribution   :      2.311094486       1.797073474       0.919424098
                        -----------------------------------------
Total Dipole Moment    :      0.885851368       0.652635522       0.333262944
                        -----------------------------------------
Magnitude (a.u.)       :      1.149665151
Magnitude (Debye)      :      2.922216582



--------------------
Rotational spectrum 
--------------------
 
Rotational constants in cm-1:             2.346148             0.366165             0.335406 
Rotational constants in MHz :         70335.737009         10977.350974         10055.226848 

Dipole components along the rotational axes: 
x,y,z [a.u.] :     1.121564    -0.251488    -0.024014 
x,y,z [Debye]:     2.850790    -0.639233    -0.061037 

 

Dipole moment calculation done in   0.0 sec 

Maximum memory used throughout the entire PROP-calculation: 4.7 MB

--------------------------------
SUGGESTED CITATIONS FOR THIS RUN
--------------------------------

Below you find a list of papers that are relevant to this ORCA run
We neither can nor want to force you to cite these papers, but we appreciate if you do
You receive ORCA, which is the product of decades of hard work by many enthusiastic individuals, for free
The only thing we kindly ask in return is that you cite our papers,
We deeply appreciate it, if you show your appreciation for ORCA by not just citing the generic ORCA reference.

Please note that relegating all ORCA citations to the supporting information does *not* help us.
SI sections are not indexed - citations you put there will not count into any citation statistics
But we need these citations in order to attract the funding resources that allow us to do what we are doing

Therefore, if you are a happy ORCA user, please consider citing a few of the papers listed below in the main body of your paper

In addition to the list printed below, the program has created the file nbo.bibtex that contains the list in bibtex format
You can import this file easily into all common literature databanks and citation aid programs


List of essential papers. We consider these as the minimum necessary citations

  1. Neese,F.
     Software update: the ORCA program system, version 5.0
     WIRES Comput. Molec. Sci., 2022 12(1)e1606
     doi.org/10.1002/wcms.1606

List of papers to cite with high priority. The work reported in these papers was absolutely
necessary for this run to complete.
Our perspective: the developers of density functionals and basis sets usually get cited in chemistry papers
Good! But without the algorithms to do something with them, the functionals or basis sets would not do anything.
Hence, in our opinion, the algorithm design and method developments papers are equally worthy of getting cited

  1. Neese,F.
     An improvement of the resolution of the identity approximation for the formation of the Coulomb matrix
     J. Comp. Chem., 2003 24(14)1740-1747
     doi.org/10.1002/jcc.10318
  2. Neese,F.; Wennmohs,F.; Hansen,A.; Becker,U.
     Efficient, approximate and parallel Hartree-Fock and hybrid DFT calculations. A 'chain-of-spheres' algorithm for the Hartree-Fock exchange
     Chem. Phys., 2009 356(1-3)98-109
     doi.org/10.1016/j.chemphys.2008.10.036
  3. Helmich-Paris,B.; de Souza,B.; Neese,F.; Izsák,R.
     An improved chain of spheres for exchange algorithm
     J. Chem. Phys., 2021 155 104109
     doi.org/doi: 10.1063/5.0058766.
  4. Neese,F.
     The SHARK Integral Generation and Digestion System
     J. Comp. Chem., 2022  1-16
     doi.org/10.1002/jcc.26942

List of suggested additional citations. These are papers that are important in the 'surrounding' of 
of this run, or papers that preceded the highly important papers. If you like your results we are grateful for a citation.

  1. Izsak,R.; Neese,F.
     An overlap fitted chain of spheres exchange method
     J. Chem. Phys., 2011 135 144105
     doi.org/10.1063/1.3646921
  2. Izsak,R.; Hansen,A.; Neese,F.
     The resolution of identity and chain of spheres approximations for the LPNO-CCSD singles Fock term
     Molec. Phys., 2012 110 2413-2417
     doi.org/10.1080/00268976.2012.687466
  3. Neese,F.
     The ORCA program system
     WIRES Comput. Molec. Sci., 2012 2(1)73-78
     doi.org/10.1002/wcms.81
  4. Izsak,R.; Neese,F.; Klopper,W.
     Robust fitting techniques in the chain of spheres approximation to the Fock exchange: The role of the complementary space
     J. Chem. Phys., 2013 139 
     doi.org/10.1063/1.4819264
  5. Neese,F.
     Software update: the ORCA program system, version 4.0
     WIRES Comput. Molec. Sci., 2018 8(1)1-6
     doi.org/10.1002/wcms.1327
  6. Neese,F.; Wennmohs,F.; Becker,U.; Riplinger,C.
     The ORCA quantum chemistry program package
     J. Chem. Phys., 2020 152 Art. No. L224108
     doi.org/10.1063/5.0004608

List of optional additional citations

  1. Neese,F.
     Approximate second-order SCF convergence for spin unrestricted wavefunctions
     Chem. Phys. Lett., 2000 325(1-3)93-98
     doi.org/10.1016/s0009-2614(00)00662-x

Timings for individual modules:

Sum of individual times          ...        4.865 sec (=   0.081 min)
Startup calculation              ...        1.030 sec (=   0.017 min)  21.2 %
SCF iterations                   ...        3.736 sec (=   0.062 min)  76.8 %
Property calculations            ...        0.099 sec (=   0.002 min)   2.0 %
                             ****ORCA TERMINATED NORMALLY****
TOTAL RUN TIME: 0 days 0 hours 0 minutes 5 seconds 257 msec
