
                                 *****************
                                 * O   R   C   A *
                                 *****************

                                            #,                                       
                                            ###                                      
                                            ####                                     
                                            #####                                    
                                            ######                                   
                                           ########,                                 
                                     ,,################,,,,,                         
                               ,,#################################,,                 
                          ,,##########################################,,             
                       ,#########################################, ''#####,          
                    ,#############################################,,   '####,        
                  ,##################################################,,,,####,       
                ,###########''''           ''''###############################       
              ,#####''   ,,,,##########,,,,          '''####'''          '####       
            ,##' ,,,,###########################,,,                        '##       
           ' ,,###''''                  '''############,,,                           
         ,,##''                                '''############,,,,        ,,,,,,###''
      ,#''                                            '''#######################'''  
     '                                                          ''''####''''         
             ,#######,   #######,   ,#######,      ##                                
            ,#'     '#,  ##    ##  ,#'     '#,    #''#        ,####,   ,####,        
            ##       ##  ##   ,#'  ##            #'  '#       #'       #'  '#        
            ##       ##  #######   ##           ,######,      #####,   #    #        
            '#,     ,#'  ##    ##  '#,     ,#' ,#      #,     #,   #   #,  ,#        
             '#######'   ##     ##  '#######'  #'      '#     '####' # '####'        



                #########################################################
                #                        -***-                          #
                #          Department of theory and spectroscopy        #
                #                                                       #
                #                      Frank Neese                      #
                #                                                       #
                #     Directorship, Architecture, Infrastructure        #
                #                    SHARK, DRIVERS                     #
                #        Core code/Algorithms in most modules           #
                #                                                       #
                #        Max Planck Institute fuer Kohlenforschung      #
                #                Kaiser Wilhelm Platz 1                 #
                #                 D-45470 Muelheim/Ruhr                 #
                #                      Germany                          #
                #                                                       #
                #                  All rights reserved                  #
                #                        -***-                          #
                #########################################################


                         Program Version 6.0.1  -  RELEASE   -


 With contributions from (in alphabetic order):
[Max-Planck-Institut fuer Kohlenforschung]                               
  Daniel Aravena         : Magnetic Suceptibility                        
  Michael Atanasov       : Ab Initio Ligand Field Theory (pilot matlab implementation)
  Alexander A. Auer      : GIAO ZORA, VPT2 properties, NMR spectrum      
  Ute Becker             : All parallelization in ORCA, NUMFREQ, NUMCALC 
  Giovanni Bistoni       : ED, misc. LED, open-shell LED, HFLD           
  Martin Brehm           : Molecular dynamics                            
  Dmytro Bykov           : pre 5.0 version of the SCF Hessian            
  Marcos Casanova-Páez   : Triplet and SCS-CIS(D). UHF-(DLPNO)-IP/EA/STEOM-CCSD. UHF-CVS-IP/STEOM-CCSD   
  Vijay G. Chilkuri      : MRCI spin determinant printing, contributions to CSF-ICE 
  Pauline Colinet        : FMM embedding                                 
  Dipayan Datta          : RHF DLPNO-CCSD density                        
  Achintya Kumar Dutta   : EOM-CC, STEOM-CC                              
  Nicolas Foglia         : Exact transition moments, OPA infrastructure, MCD improvements    
  Dmitry Ganyushin       : Spin-Orbit,Spin-Spin,Magnetic field MRCI      
  Miquel Garcia-Rates    : C-PCM and meta-GGA Hessian, CCSD/C-PCM, Gaussian charge scheme 
  Tiago L. C. Gouveia    : GS-ROHF, GS-ROCIS                             
  Yang Guo               : DLPNO-NEVPT2, F12-NEVPT2, CIM, IAO-localization        
  Andreas Hansen         : Spin unrestricted coupled pair/coupled cluster methods 
  Ingolf Harden          : AUTO-CI MPn and infrastructure                
  Benjamin Helmich-Paris : MC-RPA, TRAH-(SCF,CASSCF), AVAS, COSX integrals, SCF dyn. polar. 
  Lee Huntington         : MR-EOM, pCC                                   
  Robert Izsak           : Overlap fitted RIJCOSX, COSX-SCS-MP3, EOM     
  Riya Kayal             : Wick's Theorem for AUTO-CI, AUTO-CI UHF-CCSDT 
  Emily Kempfer          : AUTO-CI, RHF CISDT and CCSDT                  
  Christian Kollmar      : KDIIS, OOCD, Brueckner-CCSD(T), CCSD density, CASPT2, CASPT2-K, improved NEVPT2 
  Axel Koslowski         : Symmetry handling                             
  Simone Kossmann        : meta-GGA functionals, TD-DFT gradient, OOMP2, (MP2 Hessian; deprecated post 5.0) 
  Lucas Lang             : DCDCAS                                        
  Marvin Lechner         : AUTO-CI (C++ implementation), FIC-MRCC        
  Spencer Leger          : CASSCF response                               
  Dagmar Lenk            : GEPOL surface, SMD, ORCA-2-JSON               
  Dimitrios Liakos       : Extrapolation schemes; Compound Job, initial MDCI parallelization 
  Dimitrios Manganas     : Further ROCIS development; embedding schemes. LFT, Crystal Embedding 
  Dimitrios Pantazis     : SARC Basis sets                               
  Anastasios Papadopoulos: AUTO-CI, single reference methods and gradients 
  Taras Petrenko         : pre 6.0 DFT Hessian and TD-DFT gradient, (ASA, deprecated), ECA, 1-Electron XAS/XES, NRVS 
  Peter Pinski           : DLPNO-MP2, DLPNO-MP2 Gradient                 
  Christoph Reimann      : Effective Core Potentials                     
  Marius Retegan         : Local ZFS, SOC                                
  Christoph Riplinger    : Optimizer, TS searches, QM/MM, DLPNO-CCSD(T), (RO)-DLPNO pert. Triples 
  Michael Roemelt        : Original ROCIS implementation                 
  Masaaki Saitow         : Open-shell DLPNO-CCSD energy and density      
  Barbara Sandhoefer     : DKH picture change effects                    
  Kantharuban Sivalingam : CASSCF convergence/infrastructure, NEVPT2 and variants, FIC-MRCI 
  Bernardo de Souza      : ESD, SOC TD-DFT                               
  Georgi L. Stoychev     : AutoAux, RI-MP2 NMR, DLPNO-MP2 response, X2C  
  Van Anh Tran           : RI-MP2 g-tensors                              
  Willem Van den Heuvel  : Paramagnetic NMR                              
  Zikuan Wang            : NOTCH, Electric field optimization            
  Frank Wennmohs         : Technical directorship and infrastructure     
  Hang Xu                : AUTO-CI-Response properties                   
                                                                         
[FACCTs GmbH]                                                            
  Markus Bursch, Miquel Garcia-Rates, Christoph Riplinger, Bernardo de Souza, Georgi L. Stoychev 
                                                                 
  APM, Basis sets (HGBS, AHGBS, def-TZVP (Ac-Lr), def2-XVPD (La-Lu)), CI-OPT, improved COSX, DLPNO-Multilevel,           
  DOCKER, DRACO, updates on ESD, GOAT, IRC, LR-CPCM, MBIS, meta-GGA TD-DFT gradient, ML-optimized integration grids, 
  MM, NACMEs, nearIR, NEB, NEB-TS, NL-DFT gradient (VV10), 2- and 3-layer-ONIOM, interface openCOSMO-RS, QMMM,   
  Crystal-QMMM, SF, symmetry and pop. for TD-DFT, r2SCAN hybrids, SOLVATOR                                   
                                                                         
[Other institutions]                                                     
  V. Asgeirsson          : NEB                                           
  Christoph Bannwarth    : sTDA-DFT, sTD-DFT, PBEh-3c, B97-3c, D3        
  Sebastian Ehlert       : rSCAN, r2SCAN, r2SCAN-3c, D4, dhf basis sets  
  Marvin Friede          : D4 for Fr, Ra, Ac-Lr                          
  Lars Goerigk           : TD-DFT with DH, B97 family of functionals     
  Stefan Grimme          : VdW corrections, initial TS optimization, DFT functionals, gCP, sTDA/sTD-DF 
  Waldemar Hujo          : DFT-NL                                        
  H. Jonsson             : NEB                                           
  Holger Kruse           : gCP                                           
  Marcel Mueller         : wB97X-3c, vDZP basis set                      
  Hagen Neugebauer       : wr2SCAN                                       
  Tobias Risthaus        : range-separated hybrid DFT                    
  Lukas Wittmann         : regularized MP2, r2SCAN double-hybrids, wr2SCAN        
                                                                         
We gratefully acknowledge several colleagues who have allowed us to      
interface, adapt or use parts of their codes:                            
  Ed Valeev, F. Pavosevic, A. Kumar             : LibInt (2-el integral package), F12 methods 
  Garnet Chan, S. Sharma, J. Yang, R. Olivares  : DMRG                   
  Ulf Ekstrom                                   : XCFun DFT Library      
  Mihaly Kallay                                 : mrcc  (arbitrary order and MRCC methods)
  Frank Weinhold                                : gennbo (NPA and NBO analysis)           
  Simon Mueller                                 : openCOSMO-RS                            
  Christopher J. Cramer and Donald G. Truhlar   : smd solvation model                     
  S Lehtola, MJT Oliveira, MAL Marques          : LibXC Library                           
  Liviu Ungur et al                             : ANISO software                          


 Your calculation uses the libint2 library for the computation of 2-el integrals
 For citations please refer to: http://libint.valeyev.net

 Your ORCA version has been built with support for libXC version: 6.2.2
 For citations please refer to: https://libxc.gitlab.io

 This ORCA versions uses:
   CBLAS   interface :  Fast vector & matrix operations
   LAPACKE interface :  Fast linear algebra routines
   SCALAPACK package :  Parallel linear algebra routines
   Shared memory     :  Shared parallel matrices
   BLAS/LAPACK       :  OpenBLAS 0.3.27  USE64BITINT DYNAMIC_ARCH NO_AFFINITY Haswell SINGLE_THREADED
        Core in use  :  Haswell
   Copyright (c) 2011-2014, The OpenBLAS Project




***************************************
The coordinates will be read from file: dihedral.xyz
***************************************


================================================================================

----- Orbital basis set information -----
Your calculation utilizes the basis: cc-pVDZ 
       H, B-Ne : Obtained from the ccRepo (grant-hill.group.shef.ac.uk/ccrepo) Feb. 2017
                 T. H. Dunning, Jr., J. Chem. Phys. 90, 1007 (1989)
            He : Obtained from the ccRepo (grant-hill.group.shef.ac.uk/ccrepo) Feb. 2017
                 D. E. Woon, T. H. Dunning, Jr., J. Chem. Phys. 100, 2975 (1994)
  Li-Be, Na-Mg : Obtained from the ccRepo (grant-hill.group.shef.ac.uk/ccrepo) Feb. 2017
                 B. P. Prascher, D. E. Woon, K. A. Peterson, T. H. Dunning, Jr., A. K. Wilson, Theor. Chem. Acc. 128, 69 (2011)
         Al-Ar : Obtained from the ccRepo (grant-hill.group.shef.ac.uk/ccrepo) Feb. 2017
                 D. E. Woon, T. H. Dunning, Jr., J. Chem. Phys. 98, 1358 (1993)
            Ca : Obtained from the Peterson Research Group Website (tyr0.chem.wsu.edu/~kipeters) Feb. 2017
                 J. Koput, K. A. Peterson, J. Phys. Chem. 106, 9595 (2002)
         Sc-Zn : Obtained from the ccRepo (grant-hill.group.shef.ac.uk/ccrepo) Feb. 2017
                 N. B. Balabanov, K. A. Peterson, J. Chem. Phys. 123, 064107 (2005)
                 N. B. Balabanov, K. A. Peterson, J. Chem. Phys. 125, 074110 (2006)
         Ga-Kr : Obtained from the ccRepo (grant-hill.group.shef.ac.uk/ccrepo) Feb. 2017
                 A. K. Wilson, D. E. Woon, K. A. Peterson, T. H. Dunning, Jr., J. Chem. Phys. 110, 7667 (1999)

----- AuxJ basis set information -----
Your calculation utilizes the auxiliary basis: def2/J
   F. Weigend, Phys. Chem. Chem. Phys. 8, 1057 (2006).

================================================================================
                                        WARNINGS
                       Please study these warnings very carefully!
================================================================================


================================================================================
                                       INPUT FILE
================================================================================
NAME = nbo.com
|  1> ! B3LYP cc-pVDZ def2/J RIJCOSX NBO
|  2> 
|  3> * xyzfile 0 1 dihedral.xyz
|  4> 
|  5>                          ****END OF INPUT****
================================================================================

                       ****************************
                       * Single Point Calculation *
                       ****************************

---------------------------------
CARTESIAN COORDINATES (ANGSTROEM)
---------------------------------
  C      0.988460   -0.141873   -0.002458
  O      0.345507   -1.054737   -0.479810
  N      2.349165   -0.077949    0.031473
  H      0.520676    0.758318    0.469698
  H      2.890399   -0.838271   -0.366669
  H      2.830883    0.710083    0.444436

----------------------------
CARTESIAN COORDINATES (A.U.)
----------------------------
  NO LB      ZA    FRAG     MASS         X           Y           Z
   0 C     6.0000    0    12.011    1.867919   -0.268102   -0.004644
   1 O     8.0000    0    15.999    0.652913   -1.993165   -0.906710
   2 N     7.0000    0    14.007    4.439278   -0.147302    0.059476
   3 H     1.0000    0     1.008    0.983935    1.433013    0.887600
   4 H     1.0000    0     1.008    5.462063   -1.584103   -0.692903
   5 H     1.0000    0     1.008    5.349594    1.341862    0.839862

--------------------------------
INTERNAL COORDINATES (ANGSTROEM)
--------------------------------
 C      0   0   0     0.000000000000     0.00000000     0.00000000
 O      1   0   0     1.214320820051     0.00000000     0.00000000
 N      1   2   0     1.362628091244   125.01449517     0.00000000
 H      1   2   3     1.118971157173   123.31850457   180.10054251
 H      3   1   2     1.014663332334   119.19186832     0.05551327
 H      3   1   2     1.011723549360   121.47783717   180.05381342

---------------------------
INTERNAL COORDINATES (A.U.)
---------------------------
 C      0   0   0     0.000000000000     0.00000000     0.00000000
 O      1   0   0     2.294733788616     0.00000000     0.00000000
 N      1   2   0     2.574993914838   125.01449517     0.00000000
 H      1   2   3     2.114549038814   123.31850457   180.10054251
 H      3   1   2     1.917435816244   119.19186832     0.05551327
 H      3   1   2     1.911880431529   121.47783717   180.05381342

---------------------
BASIS SET INFORMATION
---------------------
There are 4 groups of distinct atoms

 Group   1 Type C   : 17s4p1d contracted to 3s2p1d pattern {881/31/1}
 Group   2 Type O   : 17s4p1d contracted to 3s2p1d pattern {881/31/1}
 Group   3 Type N   : 17s4p1d contracted to 3s2p1d pattern {881/31/1}
 Group   4 Type H   : 4s1p contracted to 2s1p pattern {31/1}

Atom   0C    basis set group =>   1
Atom   1O    basis set group =>   2
Atom   2N    basis set group =>   3
Atom   3H    basis set group =>   4
Atom   4H    basis set group =>   4
Atom   5H    basis set group =>   4
---------------------------------
AUXILIARY/J BASIS SET INFORMATION
---------------------------------
There are 4 groups of distinct atoms

 Group   1 Type C   : 12s5p4d2f1g contracted to 6s4p3d1f1g pattern {711111/2111/211/2/1}
 Group   2 Type O   : 12s5p4d2f1g contracted to 6s4p3d1f1g pattern {711111/2111/211/2/1}
 Group   3 Type N   : 12s5p4d2f1g contracted to 6s4p3d1f1g pattern {711111/2111/211/2/1}
 Group   4 Type H   : 5s2p1d contracted to 3s1p1d pattern {311/2/1}

Atom   0C    basis set group =>   1
Atom   1O    basis set group =>   2
Atom   2N    basis set group =>   3
Atom   3H    basis set group =>   4
Atom   4H    basis set group =>   4
Atom   5H    basis set group =>   4
------------------------------------------------------------------------------
                             ORCA STARTUP CALCULATIONS
                           -- RI-GTO INTEGRALS CHOSEN --
------------------------------------------------------------------------------
------------------------------------------------------------------------------
                   ___                                                        
                  /   \      - P O W E R E D   B Y -                         
                 /     \                                                     
                 |  |  |   _    _      __       _____    __    __             
                 |  |  |  | |  | |    /  \     |  _  \  |  |  /  |          
                  \  \/   | |  | |   /    \    | | | |  |  | /  /          
                 / \  \   | |__| |  /  /\  \   | |_| |  |  |/  /          
                |  |  |   |  __  | /  /__\  \  |    /   |      \           
                |  |  |   | |  | | |   __   |  |    \   |  |\   \          
                \     /   | |  | | |  |  |  |  | |\  \  |  | \   \       
                 \___/    |_|  |_| |__|  |__|  |_| \__\ |__|  \__/        
                                                                              
                      - O R C A' S   B I G   F R I E N D -                    
                                      &                                       
                       - I N T E G R A L  F E E D E R -                       
                                                                              
 v1 FN, 2020, v2 2021, v3 2022-2024                                           
------------------------------------------------------------------------------


----------------------
SHARK INTEGRAL PACKAGE
----------------------

Number of atoms                             ...      6
Number of basis functions                   ...     75
Number of shells                            ...     45
Maximum angular momentum                    ...      2
Integral batch strategy                     ... SHARK/LIBINT Hybrid
RI-J (if used) integral strategy            ... SPLIT-RIJ (Revised 2003 algorithm where possible)
Printlevel                                  ...      1
Contraction scheme used                     ... PARTIAL GENERAL contraction
Prescreening option                         ... SCHWARTZ
   Thresh                                   ... 1.000e-10
   Tcut                                     ... 1.000e-11
   Tpresel                                  ... 1.000e-11 
Coulomb Range Separation                    ... NOT USED
Exchange Range Separation                   ... NOT USED
Multipole approximations                    ... NOT USED
Finite Nucleus Model                        ... NOT USED
CABS basis                                  ... NOT available
Auxiliary Coulomb fitting basis             ... AVAILABLE
   # of basis functions in Aux-J            ...    180
   # of shells in Aux-J                     ...     60
   Maximum angular momentum in Aux-J        ...      4
Auxiliary J/K fitting basis                 ... NOT available
Auxiliary Correlation fitting basis         ... NOT available
Auxiliary 'external' fitting basis          ... NOT available

Checking pre-screening integrals            ... done (  0.0 sec) Dimension = 45
Save PGC pre-screening integrals            ... done (  0.0 sec) Dimension = 45
Calculate PGC overlap integrals             ... done (  0.0 sec) Dimension = 27
Calculating pre-screening integrals (ORCA)  ... done (  0.0 sec) Dimension = 27
Check shell pair data                       ... done (  0.0 sec)
Shell pair information
Shell pair cut-off parameter TPreSel        ...   1.0e-11
Total number of shell pairs                 ...      1035
Shell pairs after pre-screening             ...       905
Total number of primitive shell pairs       ...      1671
Primitive shell pairs kept                  ...      1386
          la=0 lb=0:    435 shell pairs
          la=1 lb=0:    293 shell pairs
          la=1 lb=1:     45 shell pairs
          la=2 lb=0:     99 shell pairs
          la=2 lb=1:     27 shell pairs
          la=2 lb=2:      6 shell pairs

Calculating one electron integrals          ... done (  0.0 sec)
Calculating RI/J V-Matrix + Cholesky decomp.... done (  0.0 sec)
Calculating Nuclear repulsion               ... done (  0.0 sec) ENN=     70.961175372917 Eh

Diagonalization of the overlap matrix:
Smallest eigenvalue                        ... 7.960e-03
Time for diagonalization                   ...    0.000 sec
Threshold for overlap eigenvalues          ... 1.000e-07
Number of eigenvalues below threshold      ... 0
Time for construction of square roots      ...    0.000 sec
Total time needed                          ...    0.001 sec

-------------------
DFT GRID GENERATION
-------------------

General Integration Accuracy     IntAcc      ... 4.388
Radial Grid Type                 RadialGrid  ... OptM3 with GC (2021)
Angular Grid (max. ang.)         AngularGrid ... 4 (Lebedev-302)
Angular grid pruning method      GridPruning ... 4 (adaptive)
Weight generation scheme         WeightScheme... mBecke (2022)
Basis function cutoff            BFCut       ... 1.0000e-10
Integration weight cutoff        WCut        ... 1.0000e-14
Partially contracted basis set               ... off
Rotationally invariant grid construction     ... off
Angular grids for H and He will be reduced by one unit

Total number of grid points                  ...    28124
Total number of batches                      ...      442
Average number of points per batch           ...       63
Average number of grid points per atom       ...     4687

---------------------
SHARK GRID GENERATION
---------------------

General Integration Accuracy     IntAcc      ... 4.388
Radial Grid Type                 RadialGrid  ... OptM3 with GC (2021)
Angular Grid (max. ang.)         AngularGrid ... 4 (Lebedev-302)
Angular grid pruning method      GridPruning ... 4 (adaptive)
Weight generation scheme         WeightScheme... mBecke (2022)
Basis function cutoff            BFCut       ... 1.0000e-10
Integration weight cutoff        WCut        ... 1.0000e-14
Partially contracted basis set               ... off
Rotationally invariant grid construction     ... off
Angular grids for H and He will be reduced by one unit
Steep s-basis detected: some atoms will have their radial
                        grid points doubled.

Total number of grid points                  ...    46707
Total number of batches                      ...      733
Average number of points per batch           ...       63
Average number of grid points per atom       ...     7784

--------------------
COSX GRID GENERATION
--------------------

GRIDX 1
-------
General Integration Accuracy     IntAcc      ... 3.816
Radial Grid Type                 RadialGrid  ... OptM3 with GC (2021)
Angular Grid (max. ang.)         AngularGrid ... 1 (Lebedev-50)
Angular grid pruning method      GridPruning ... 4 (adaptive)
Weight generation scheme         WeightScheme... mBecke (2022)
Basis function cutoff            BFCut       ... 1.0000e-10
Integration weight cutoff        WCut        ... 1.0000e-14
Partially contracted basis set               ... on
Rotationally invariant grid construction     ... off
Angular grids for H and He will be reduced by one unit

Total number of grid points                  ...     3615
Total number of batches                      ...       32
Average number of points per batch           ...      112
Average number of grid points per atom       ...      602
UseSFitting                                  ... on

GRIDX 2
-------
General Integration Accuracy     IntAcc      ... 4.020
Radial Grid Type                 RadialGrid  ... OptM3 with GC (2021)
Angular Grid (max. ang.)         AngularGrid ... 2 (Lebedev-110)
Angular grid pruning method      GridPruning ... 4 (adaptive)
Weight generation scheme         WeightScheme... mBecke (2022)
Basis function cutoff            BFCut       ... 1.0000e-10
Integration weight cutoff        WCut        ... 1.0000e-14
Partially contracted basis set               ... on
Rotationally invariant grid construction     ... off
Angular grids for H and He will be reduced by one unit

Total number of grid points                  ...     7974
Total number of batches                      ...       65
Average number of points per batch           ...      122
Average number of grid points per atom       ...     1329
UseSFitting                                  ... on

GRIDX 3
-------
General Integration Accuracy     IntAcc      ... 4.338
Radial Grid Type                 RadialGrid  ... OptM3 with GC (2021)
Angular Grid (max. ang.)         AngularGrid ... 3 (Lebedev-194)
Angular grid pruning method      GridPruning ... 4 (adaptive)
Weight generation scheme         WeightScheme... mBecke (2022)
Basis function cutoff            BFCut       ... 1.0000e-10
Integration weight cutoff        WCut        ... 1.0000e-14
Partially contracted basis set               ... on
Rotationally invariant grid construction     ... off
Angular grids for H and He will be reduced by one unit

Total number of grid points                  ...    17639
Total number of batches                      ...      141
Average number of points per batch           ...      125
Average number of grid points per atom       ...     2940
UseSFitting                                  ... on
Initializing property integral containers    ... done (  0.0 sec)

SHARK setup successfully completed in   0.9 seconds

Maximum memory used throughout the entire STARTUP-calculation: 19.5 MB
-------------------------------------------------------------------------------
                                 ORCA GUESS
                   Start orbitals & Density for SCF / CASSCF
-------------------------------------------------------------------------------

------------
SCF SETTINGS
------------
Hamiltonian:
 Density Functional     Method          .... DFT(GTOs)
 Exchange Functional    Exchange        .... B88
   X-Alpha parameter    XAlpha          ....  0.666667
   Becke's b parameter  XBeta           ....  0.004200
 Correlation Functional Correlation     .... LYP
 LDA part of GGA corr.  LDAOpt          .... VWN-5
 Gradients option       PostSCFGGA      .... off
 Hybrid DFT is turned on
   Fraction HF Exchange ScalHFX         ....  0.200000
   Scaling of DF-GGA-X  ScalDFX         ....  0.720000
   Scaling of DF-GGA-C  ScalDFC         ....  0.810000
   Scaling of DF-LDA-C  ScalLDAC        ....  1.000000
   Perturbative correction              ....  0.000000
   NL short-range parameter             ....  4.800000
 RI-approximation to the Coulomb term is turned on
   Number of AuxJ basis functions       .... 180
   RIJ-COSX (HFX calculated with COS-X)).... on


General Settings:
 Integral files         IntName         .... nbo
 Hartree-Fock type      HFTyp           .... RHF
 Total Charge           Charge          ....    0
 Multiplicity           Mult            ....    1
 Number of Electrons    NEL             ....   24
 Basis Dimension        Dim             ....   57
 Nuclear Repulsion      ENuc            ....     70.9611753729 Eh

Convergence Acceleration:
 AO-DIIS                CNVDIIS         .... on
   Start iteration      DIISMaxIt       ....    12
   Startup error        DIISStart       ....  0.200000
   # of expansion vecs  DIISMaxEq       ....     5
   Bias factor          DIISBfac        ....   1.050
   Max. coefficient     DIISMaxC        ....  10.000
 MO-DIIS                CNVKDIIS        .... off
 Trust-Rad. Augm. Hess. CNVTRAH         .... auto
   Auto Start mean grad. ratio tolernc. ....  1.125000
   Auto Start start iteration           ....    50
   Auto Start num. interpolation iter.  ....    10
   Max. Number of Micro iterations      ....    24
   Max. Number of Macro iterations      .... Maxiter - #DIIS iter
   Number of Davidson start vectors     ....     2
   Converg. threshold    (grad. norm)   ....   5.000e-05
   Grad. Scal. Fac. for Micro threshold ....   0.100
   Minimum threshold for Micro iter.    ....   1.000e-02
   NR start threshold (gradient norm)   ....   1.000e-04
   Initial trust radius                 ....   0.400
   Minimum AH scaling param. (alpha)    ....   1.000
   Maximum AH scaling param. (alpha)    .... 1000.000
   Quad. conv. algorithm                .... NR
   White noise on init. David. guess    .... on
   Maximum white noise                  ....   0.010
   Pseudo random numbers                .... off
   Inactive MOs                         .... canonical
   Orbital update algorithm             .... Taylor
   Preconditioner                       .... Diag
   Full preconditioner red. dimension   ....   250
 SOSCF                  CNVSOSCF        .... on
   Start iteration      SOSCFMaxIt      ....   150
   Startup grad/error   SOSCFStart      ....  0.003300
   Hessian update       SOSCFHessUp     .... L-BFGS
 Level Shifting         CNVShift        .... on
   Level shift para.    LevelShift      ....    0.2500
   Turn off err/grad.   ShiftErr        ....    0.0010
 Zerner damping         CNVZerner       .... off
 Static damping         CNVDamp         .... on
   Fraction old density DampFac         ....    0.7000
   Max. Damping (<1)    DampMax         ....    0.9800
   Min. Damping (>=0)   DampMin         ....    0.0000
   Turn off err/grad.   DampErr         ....    0.1000

SCF Procedure:
 Maximum # iterations   MaxIter         ....   125
 SCF integral mode      SCFMode         .... Direct
   Integral package                     .... SHARK and LIBINT hybrid scheme
 Reset frequency        DirectResetFreq ....    20
 Integral Threshold     Thresh          ....  1.000e-10 Eh
 Primitive CutOff       TCut            ....  1.000e-11 Eh

Convergence Tolerance:
 Convergence Check Mode ConvCheckMode   .... Total+1el-Energy
 Convergence forced     ConvForced      .... 0
 Energy Change          TolE            ....  1.000e-06 Eh
 1-El. energy change                    ....  1.000e-03 Eh
 Orbital Gradient       TolG            ....  5.000e-05
 Orbital Rotation angle TolX            ....  5.000e-05
 DIIS Error             TolErr          ....  1.000e-06

------------------------------
INITIAL GUESS: MODEL POTENTIAL
------------------------------
Loading Hartree-Fock densities                     ... done
Calculating cut-offs                               ... done
Initializing the effective Hamiltonian             ... done
Setting up the integral package (SHARK)            ... done
Starting the Coulomb interaction                   ... done (   0.0 sec)
Making the grid                                    ... done (   0.0 sec)
Mapping shells                                     ... done
Starting the XC term evaluation                    ... done (   0.0 sec)
  promolecular density results
     # of electrons  =     23.999138283
     EX              =    -20.785368039
     EC              =     -0.816933389
     EX+EC           =    -21.602301428
Transforming the Hamiltonian                       ... done (   0.0 sec)
Diagonalizing the Hamiltonian                      ... done (   0.0 sec)
Back transforming the eigenvectors                 ... done (   0.0 sec)
Now organizing SCF variables                       ... done
                      ------------------
                      INITIAL GUESS DONE (   0.1 sec)
                      ------------------
             **** ENERGY FILE WAS UPDATED (nbo.en.tmp) ****
Finished Guess after   0.1 sec
Maximum memory used throughout the entire GUESS-calculation: 7.5 MB

-------------------------------------------------------------------------------------------
                                      ORCA LEAN-SCF
                              memory conserving SCF solver
-------------------------------------------------------------------------------------------

----------------------------------------D-I-I-S--------------------------------------------
Iteration    Energy (Eh)           Delta-E    RMSDP     MaxDP     DIISErr   Damp  Time(sec)
-------------------------------------------------------------------------------------------
               ***  Starting incremental Fock matrix formation  ***
    1    -169.6578357016021528     0.00e+00  7.78e-03  9.93e-02  2.79e-01  0.700   0.4
    2    -169.7350024134553337    -7.72e-02  4.86e-03  5.58e-02  1.12e-01  0.700   0.3
                               ***Turning on AO-DIIS***
    3    -169.7600693808642518    -2.51e-02  1.59e-03  1.72e-02  4.45e-02  0.700   0.3
    4    -169.7763621692060383    -1.63e-02  2.09e-03  1.97e-02  1.76e-02  0.000   0.2
    5    -169.8136805851505073    -3.73e-02  7.33e-04  7.90e-03  9.47e-03  0.000   0.2
                              *** Initializing SOSCF ***
---------------------------------------S-O-S-C-F--------------------------------------
Iteration    Energy (Eh)           Delta-E    RMSDP     MaxDP     MaxGrad    Time(sec)
--------------------------------------------------------------------------------------
    6    -169.8139310876753711    -2.51e-04  2.47e-04  2.76e-03  1.88e-03     0.2
               *** Restarting incremental Fock matrix formation ***
    7    -169.8139413663603818    -1.03e-05  2.22e-04  2.36e-03  6.10e-04     0.4
    8    -169.8139433979411592    -2.03e-06  7.00e-05  8.57e-04  4.51e-04     0.3
    9    -169.8139442727185724    -8.75e-07  5.27e-05  5.39e-04  2.74e-04     0.3
                 **** Energy Check signals convergence ****

               *****************************************************
               *                     SUCCESS                       *
               *           SCF CONVERGED AFTER   9 CYCLES          *
               *****************************************************

Recomputing exchange energy using gridx3       ... done (    0.515 sec)
Old exchange energy                            :     -4.216221019 Eh
New exchange energy                            :     -4.216204983 Eh
Exchange energy change after final integration :      0.000016036 Eh
Total energy after final integration           :   -169.813928237 Eh
             **** ENERGY FILE WAS UPDATED (nbo.en.tmp) ****

----------------
TOTAL SCF ENERGY
----------------

Total Energy       :       -169.81392823706750 Eh           -4620.87191 eV

Components:
Nuclear Repulsion  :         70.96117537291711 Eh            1930.95175 eV
Electronic Energy  :       -240.77511964563570 Eh           -6551.82409 eV
One Electron Energy:       -371.52690689523661 Eh          -10109.76111 eV
Two Electron Energy:        130.75178724960091 Eh            3557.93701 eV

Virial components:
Potential Energy   :       -338.63605966454156 Eh           -9214.75565 eV
Kinetic Energy     :        168.82213142747403 Eh            4593.88374 eV
Virial Ratio       :          2.00587480326902

DFT components:
N(Alpha)           :       12.000000333455 electrons
N(Beta)            :       12.000000333455 electrons
N(Total)           :       24.000000666909 electrons
E(X)               :      -16.781436703126 Eh       
E(C)               :       -0.970081375690 Eh       
E(XC)              :      -17.751518078816 Eh       

---------------
SCF CONVERGENCE
---------------

  Last Energy change         ...    8.7478e-07  Tolerance :   1.0000e-06
  Last MAX-Density change    ...    5.3884e-04  Tolerance :   1.0000e-05
  Last RMS-Density change    ...    5.2695e-05  Tolerance :   1.0000e-06
  Last DIIS Error            ...    1.8777e-03  Tolerance :   1.0000e-06
  Last Orbital Gradient      ...    2.7403e-04  Tolerance :   5.0000e-05
  Last Orbital Rotation      ...    3.3120e-04  Tolerance :   5.0000e-05


----------------
ORBITAL ENERGIES
----------------

  NO   OCC          E(Eh)            E(eV) 
   0   2.0000     -19.105123      -519.8768 
   1   2.0000     -14.354833      -390.6149 
   2   2.0000     -10.284453      -279.8542 
   3   2.0000      -1.029866       -28.0241 
   4   2.0000      -0.904012       -24.5994 
   5   2.0000      -0.619687       -16.8625 
   6   2.0000      -0.549818       -14.9613 
   7   2.0000      -0.472572       -12.8593 
   8   2.0000      -0.407085       -11.0774 
   9   2.0000      -0.398698       -10.8491 
  10   2.0000      -0.269131        -7.3234 
  11   2.0000      -0.250934        -6.8283 
  12   0.0000       0.031504         0.8573 
  13   0.0000       0.051097         1.3904 
  14   0.0000       0.080388         2.1875 
  15   0.0000       0.134710         3.6656 
  16   0.0000       0.251936         6.8555 
  17   0.0000       0.340031         9.2527 
  18   0.0000       0.466342        12.6898 
  19   0.0000       0.475256        12.9324 
  20   0.0000       0.492715        13.4075 
  21   0.0000       0.512830        13.9548 
  22   0.0000       0.645231        17.5576 
*Only the first 10 virtual orbitals were printed.

                    ********************************
                    * MULLIKEN POPULATION ANALYSIS *
                    ********************************

-----------------------
MULLIKEN ATOMIC CHARGES
-----------------------
   0 C :    0.166621
   1 O :   -0.256385
   2 N :   -0.088540
   3 H :   -0.018849
   4 H :    0.100946
   5 H :    0.096206
Sum of atomic charges:    0.0000000

--------------------------------
MULLIKEN REDUCED ORBITAL CHARGES
--------------------------------
  0 C s       :     3.033694  s :     3.033694
      pz      :     0.846274  p :     2.613859
      px      :     0.862179
      py      :     0.905405
      dz2     :     0.016853  d :     0.185826
      dxz     :     0.036653
      dyz     :     0.021792
      dx2y2   :     0.063783
      dxy     :     0.046746

  1 O s       :     3.741041  s :     3.741041
      pz      :     1.407293  p :     4.496956
      px      :     1.644926
      py      :     1.444737
      dz2     :     0.002725  d :     0.018388
      dxz     :     0.002603
      dyz     :     0.004055
      dx2y2   :     0.003756
      dxy     :     0.005249

  2 N s       :     3.312583  s :     3.312583
      pz      :     1.542229  p :     3.757602
      px      :     1.059579
      py      :     1.155794
      dz2     :     0.001084  d :     0.018356
      dxz     :     0.004218
      dyz     :     0.001012
      dx2y2   :     0.004653
      dxy     :     0.007389

  3 H s       :     0.993721  s :     0.993721
      pz      :     0.006177  p :     0.025128
      px      :     0.005838
      py      :     0.013112

  4 H s       :     0.844969  s :     0.844969
      pz      :     0.016353  p :     0.054084
      px      :     0.014226
      py      :     0.023505

  5 H s       :     0.848038  s :     0.848038
      pz      :     0.017691  p :     0.055756
      px      :     0.013787
      py      :     0.024278



                     *******************************
                     * LOEWDIN POPULATION ANALYSIS *
                     *******************************

----------------------
LOEWDIN ATOMIC CHARGES
----------------------
   0 C :   -0.111635
   1 O :   -0.073919
   2 N :    0.081579
   3 H :   -0.011534
   4 H :    0.057646
   5 H :    0.057862

-------------------------------
LOEWDIN REDUCED ORBITAL CHARGES
-------------------------------
  0 C s       :     2.846620  s :     2.846620
      pz      :     0.859446  p :     2.793047
      px      :     0.957820
      py      :     0.975781
      dz2     :     0.040920  d :     0.471968
      dxz     :     0.090153
      dyz     :     0.056667
      dx2y2   :     0.170145
      dxy     :     0.114082

  1 O s       :     3.498557  s :     3.498557
      pz      :     1.404904  p :     4.543716
      px      :     1.638815
      py      :     1.499996
      dz2     :     0.003839  d :     0.031646
      dxz     :     0.004220
      dyz     :     0.007182
      dx2y2   :     0.006111
      dxy     :     0.010294

  2 N s       :     3.000068  s :     3.000068
      pz      :     1.480614  p :     3.854484
      px      :     1.149246
      py      :     1.224624
      dz2     :     0.003968  d :     0.063869
      dxz     :     0.011862
      dyz     :     0.004958
      dx2y2   :     0.017768
      dxy     :     0.025314

  3 H s       :     0.938479  s :     0.938479
      pz      :     0.018236  p :     0.073055
      px      :     0.016734
      py      :     0.038084

  4 H s       :     0.802810  s :     0.802810
      pz      :     0.047936  p :     0.139544
      px      :     0.034472
      py      :     0.057136

  5 H s       :     0.801077  s :     0.801077
      pz      :     0.050138  p :     0.141061
      px      :     0.032078
      py      :     0.058845



                      *****************************
                      * MAYER POPULATION ANALYSIS *
                      *****************************

  NA   - Mulliken gross atomic population
  ZA   - Total nuclear charge
  QA   - Mulliken gross atomic charge
  VA   - Mayer's total valence
  BVA  - Mayer's bonded valence
  FA   - Mayer's free valence

  ATOM       NA         ZA         QA         VA         BVA        FA
  0 C      5.8334     6.0000     0.1666     4.3663     4.3663    -0.0000
  1 O      8.2564     8.0000    -0.2564     2.3250     2.3250     0.0000
  2 N      7.0885     7.0000    -0.0885     3.3102     3.3102     0.0000
  3 H      1.0188     1.0000    -0.0188     0.9685     0.9685     0.0000
  4 H      0.8991     1.0000     0.1009     1.0279     1.0279     0.0000
  5 H      0.9038     1.0000     0.0962     1.0139     1.0139     0.0000

  Mayer bond orders larger than 0.100000
B(  0-C ,  1-O ) :   2.1294 B(  0-C ,  2-N ) :   1.2854 B(  0-C ,  3-H ) :   0.9103 
B(  1-O ,  2-N ) :   0.1068 B(  2-N ,  4-H ) :   0.9597 B(  2-N ,  5-H ) :   0.9672 


Now starting NBO....

 *********************************** NBO 7.0 ***********************************
             N A T U R A L   A T O M I C   O R B I T A L   A N D
          N A T U R A L   B O N D   O R B I T A L   A N A L Y S I S
 **************************** Suman Saurav (S102030) ***************************
  (c) Copyright 1996-2020 Board of Regents of the University of Wisconsin System
      on behalf of the Theoretical Chemistry Institute.  All rights reserved.

          Cite this program [NBO 7.0.9 (21-May-2020)] as:

          NBO 7.0.  E. D. Glendening, J. K. Badenhoop, A. E. Reed,
          J. E. Carpenter, J. A. Bohmann, C. M. Morales, P. Karafiloglou,
          C. R. Landis, and F. Weinhold, Theoretical Chemistry Institute,
          University of Wisconsin, Madison, WI (2018)

       /NPA    / : Natural Population Analysis
       /NBO    / : Natural Bond Orbital Analysis
       /AONBO  / : Checkpoint the AO to NBO transformation
       /ARCHIVE/ : Write the archive file to lfn47

 Job title: ORCA Job: nbo


 NATURAL POPULATIONS:  Natural atomic orbital occupancies

  NAO Atom No lang   Type(AO)    Occupancy      Energy
 -------------------------------------------------------
   1    C  1  s      Cor( 1s)     1.99998     -10.28429
   2    C  1  s      Val( 2s)     0.86943      -0.10816
   3    C  1  s      Ryd( 3s)     0.00960       0.67936
   4    C  1  px     Val( 2p)     0.81263       0.03857
   5    C  1  px     Ryd( 3p)     0.00927       0.47138
   6    C  1  py     Val( 2p)     0.90315      -0.01091
   7    C  1  py     Ryd( 3p)     0.00919       0.60750
   8    C  1  pz     Val( 2p)     0.81851      -0.08415
   9    C  1  pz     Ryd( 3p)     0.00392       0.50658
  10    C  1  dxy    Ryd( 3d)     0.00223       1.94561
  11    C  1  dxz    Ryd( 3d)     0.00234       1.58869
  12    C  1  dyz    Ryd( 3d)     0.00174       1.68734
  13    C  1  dx2y2  Ryd( 3d)     0.00412       1.87313
  14    C  1  dz2    Ryd( 3d)     0.00149       1.56296

  15    O  2  s      Cor( 1s)     1.99999     -19.10492
  16    O  2  s      Val( 2s)     1.71205      -0.65662
  17    O  2  s      Ryd( 3s)     0.00097       1.97967
  18    O  2  px     Val( 2p)     1.77202      -0.24052
  19    O  2  px     Ryd( 3p)     0.00169       1.11541
  20    O  2  py     Val( 2p)     1.61326      -0.24533
  21    O  2  py     Ryd( 3p)     0.00092       1.06965
  22    O  2  pz     Val( 2p)     1.49948      -0.22825
  23    O  2  pz     Ryd( 3p)     0.00070       1.05261
  24    O  2  dxy    Ryd( 3d)     0.00212       3.01413
  25    O  2  dxz    Ryd( 3d)     0.00106       2.79810
  26    O  2  dyz    Ryd( 3d)     0.00163       2.91706
  27    O  2  dx2y2  Ryd( 3d)     0.00185       2.91845
  28    O  2  dz2    Ryd( 3d)     0.00113       2.79241

  29    N  3  s      Cor( 1s)     1.99998     -14.35470
  30    N  3  s      Val( 2s)     1.36253      -0.47922
  31    N  3  s      Ryd( 3s)     0.00064       1.38977
  32    N  3  px     Val( 2p)     1.34378      -0.22217
  33    N  3  px     Ryd( 3p)     0.00184       0.83966
  34    N  3  py     Val( 2p)     1.47185      -0.23237
  35    N  3  py     Ryd( 3p)     0.00167       1.05442
  36    N  3  pz     Val( 2p)     1.66865      -0.25217
  37    N  3  pz     Ryd( 3p)     0.00271       0.82949
  38    N  3  dxy    Ryd( 3d)     0.00076       2.43398
  39    N  3  dxz    Ryd( 3d)     0.00043       2.10594
  40    N  3  dyz    Ryd( 3d)     0.00070       2.16037
  41    N  3  dx2y2  Ryd( 3d)     0.00093       2.34500
  42    N  3  dz2    Ryd( 3d)     0.00057       2.07804

  43    H  4  s      Val( 1s)     0.87459       0.01908
  44    H  4  s      Ryd( 2s)     0.00675       0.33474
  45    H  4  px     Ryd( 2p)     0.00039       1.79396
  46    H  4  py     Ryd( 2p)     0.00072       1.98057
  47    H  4  pz     Ryd( 2p)     0.00028       1.65777

  48    H  5  s      Val( 1s)     0.59423       0.09286
  49    H  5  s      Ryd( 2s)     0.00438       0.35899
  50    H  5  px     Ryd( 2p)     0.00049       1.87968
  51    H  5  py     Ryd( 2p)     0.00108       2.00388
  52    H  5  pz     Ryd( 2p)     0.00066       1.67098

  53    H  6  s      Val( 1s)     0.59868       0.08536
  54    H  6  s      Ryd( 2s)     0.00183       0.34569
  55    H  6  px     Ryd( 2p)     0.00049       1.85198
  56    H  6  py     Ryd( 2p)     0.00113       2.03631
  57    H  6  pz     Ryd( 2p)     0.00080       1.67816


 Summary of Natural Population Analysis:

                                     Natural Population
             Natural    ---------------------------------------------
  Atom No    Charge        Core      Valence    Rydberg      Total
 --------------------------------------------------------------------
    C  1    0.55240      1.99998     3.40371    0.04390     5.44760
    O  2   -0.60886      1.99999     6.59680    0.01207     8.60886
    N  3   -0.85704      1.99998     5.84681    0.01025     7.85704
    H  4    0.11727      0.00000     0.87459    0.00813     0.88273
    H  5    0.39916      0.00000     0.59423    0.00661     0.60084
    H  6    0.39707      0.00000     0.59868    0.00425     0.60293
 ====================================================================
 * Total *  0.00000      5.99996    17.91483    0.08521    24.00000

                                 Natural Population
 ---------------------------------------------------------
   Core                       5.99996 ( 99.9993% of    6)
   Valence                   17.91483 ( 99.5268% of   18)
   Natural Minimal Basis     23.91479 ( 99.6449% of   24)
   Natural Rydberg Basis      0.08521 (  0.3551% of   24)
 ---------------------------------------------------------

    Atom No         Natural Electron Configuration
 ----------------------------------------------------------------------------
      C  1      [core]2s( 0.87)2p( 2.53)3s( 0.01)3p( 0.02)3d( 0.01)
      O  2      [core]2s( 1.71)2p( 4.88)3d( 0.01)
      N  3      [core]2s( 1.36)2p( 4.48)3p( 0.01)
      H  4            1s( 0.87)2s( 0.01)
      H  5            1s( 0.59)
      H  6            1s( 0.60)


 NATURAL BOND ORBITAL ANALYSIS:

                            Occupancies       Lewis Structure    Low   High
         Max    Occ     -------------------  -----------------   occ   occ
  Cycle  Ctr   Thresh    Lewis   non-Lewis     CR  BD  nC  LP    (L)   (NL)
 ============================================================================
    1     2     1.90    22.51853   1.48147      3   7   0   2     2      3
    2     2     1.84    23.52980   0.47020      3   6   0   3     1      1
    3     2     1.74    23.52980   0.47020      3   6   0   3     0      1
    4     2     1.84    23.52980   0.47020      3   6   0   3     1      1
 ----------------------------------------------------------------------------

 Strongly delocalized structure accepted

 -------------------------------------------------------
   Core                      5.99996 ( 99.999% of   6)
   Valence Lewis            17.52984 ( 97.388% of  18)
  ==================      =============================
   Total Lewis              23.52980 ( 98.041% of  24)
  -----------------------------------------------------
   Valence non-Lewis         0.41672 (  1.736% of  24)
   Rydberg non-Lewis         0.05348 (  0.223% of  24)
  ==================      =============================
   Total non-Lewis           0.47020 (  1.959% of  24)
 -------------------------------------------------------


     (Occupancy)   Bond orbital / Coefficients / Hybrids
 ------------------ Lewis ------------------------------------------------------
   1. (1.99998) CR ( 1) C  1            s(100.00%)
                                         1.0000  0.0000  0.0000  0.0000  0.0000
                                         0.0000  0.0000  0.0000  0.0000  0.0000
                                         0.0000  0.0000  0.0000  0.0000
   2. (1.99999) CR ( 1) O  2            s(100.00%)
                                         1.0000  0.0000  0.0000  0.0000  0.0000
                                         0.0000  0.0000  0.0000  0.0000  0.0000
                                         0.0000  0.0000  0.0000  0.0000
   3. (1.99998) CR ( 1) N  3            s(100.00%)
                                         1.0000  0.0000  0.0000  0.0000  0.0000
                                         0.0000  0.0000  0.0000  0.0000  0.0000
                                         0.0000  0.0000  0.0000  0.0000
   4. (1.98059) LP ( 1) O  2            s( 59.46%)p 0.68( 40.51%)d 0.00(  0.03%)
                                         0.0000  0.7710 -0.0119 -0.3457  0.0026
                                        -0.4735  0.0038 -0.2477  0.0020 -0.0113
                                        -0.0059 -0.0089  0.0028  0.0055
   5. (1.84673) LP ( 2) O  2            s(  0.01%)p 1.00( 99.88%)d 0.00(  0.11%)
                                         0.0000  0.0074 -0.0038  0.8440 -0.0079
                                        -0.4741  0.0049 -0.2482  0.0026  0.0119
                                         0.0062 -0.0122  0.0273 -0.0060
   6. (1.74525) LP ( 1) N  3            s(  0.00%)p 1.00( 99.99%)d 0.00(  0.01%)
                                         0.0000  0.0007  0.0000 -0.0008  0.0000
                                         0.4636 -0.0155 -0.8853  0.0296 -0.0047
                                         0.0090 -0.0013 -0.0009 -0.0016
   7. (1.99863) BD ( 1) C  1- O  2
               ( 30.85%)   0.5554* C  1 s(  0.00%)p 1.00( 99.61%)d 0.00(  0.39%)
                                         0.0000  0.0006  0.0000  0.0002  0.0000
                                         0.4621 -0.0255 -0.8829  0.0487 -0.0140
                                         0.0269  0.0310  0.0224  0.0387
               ( 69.15%)   0.8316* O  2 s(  0.00%)p 1.00( 99.84%)d 0.00(  0.16%)
                                         0.0000 -0.0001  0.0000 -0.0002  0.0000
                                         0.4632  0.0040 -0.8853 -0.0076  0.0101
                                        -0.0193 -0.0194 -0.0140 -0.0242
   8. (1.99622) BD ( 2) C  1- O  2
               ( 33.99%)   0.5830* C  1 s( 34.21%)p 1.92( 65.60%)d 0.01(  0.19%)
                                         0.0000  0.5825  0.0533 -0.4120 -0.0413
                                        -0.6151 -0.0457 -0.3217 -0.0239  0.0303
                                         0.0158  0.0202 -0.0173 -0.0062
               ( 66.01%)   0.8125* O  2 s( 40.54%)p 1.46( 59.25%)d 0.01(  0.21%)
                                         0.0000  0.6363  0.0217  0.4081  0.0090
                                         0.5781  0.0143  0.3023  0.0075  0.0331
                                         0.0173  0.0222 -0.0109 -0.0115
   9. (1.99593) BD ( 1) C  1- N  3
               ( 36.35%)   0.6029* C  1 s( 32.11%)p 2.11( 67.69%)d 0.01(  0.20%)
                                         0.0000  0.5656  0.0341  0.8211  0.0498
                                        -0.0128  0.0046 -0.0061  0.0024  0.0014
                                         0.0008 -0.0019  0.0395 -0.0212
               ( 63.65%)   0.7978* N  3 s( 40.60%)p 1.46( 59.31%)d 0.00(  0.08%)
                                         0.0000  0.6372  0.0047 -0.7692 -0.0111
                                        -0.0319  0.0020 -0.0155  0.0010  0.0019
                                         0.0010  0.0043  0.0231 -0.0168
  10. (1.98291) BD ( 1) C  1- H  4
               ( 57.86%)   0.7607* C  1 s( 34.05%)p 1.93( 65.88%)d 0.00(  0.07%)
                                         0.0000  0.5812 -0.0520 -0.3844 -0.0099
                                         0.6328 -0.0217  0.3315 -0.0114 -0.0133
                                        -0.0070  0.0143 -0.0159 -0.0022
               ( 42.14%)   0.6491* H  4 s( 99.87%)p 0.00(  0.13%)
                                         0.9992 -0.0178  0.0192 -0.0273 -0.0143
  11. (1.99139) BD ( 1) N  3- H  5
               ( 70.64%)   0.8405* N  3 s( 29.38%)p 2.40( 70.56%)d 0.00(  0.06%)
                                         0.0000  0.5421 -0.0010  0.4804  0.0228
                                        -0.6100 -0.0070 -0.3195 -0.0036 -0.0146
                                        -0.0076  0.0146 -0.0058 -0.0083
               ( 29.36%)   0.5419* H  5 s( 99.75%)p 0.00(  0.25%)
                                         0.9987 -0.0095 -0.0251  0.0388  0.0203
  12. (1.99218) BD ( 1) N  3- H  6
               ( 70.25%)   0.8381* N  3 s( 29.90%)p 2.34( 70.04%)d 0.00(  0.06%)
                                         0.0000  0.5468  0.0008  0.4193  0.0235
                                         0.6412  0.0082  0.3358  0.0043  0.0138
                                         0.0072  0.0162 -0.0086 -0.0080
               ( 29.75%)   0.5455* H  6 s( 99.75%)p 0.00(  0.25%)
                                         0.9987 -0.0045 -0.0241 -0.0388 -0.0204
 ---------------- non-Lewis ----------------------------------------------------
  13. (0.24813) BD*( 1) C  1- O  2
               ( 69.15%)   0.8316* C  1 s(  0.00%)p 1.00( 99.61%)d 0.00(  0.39%)
                                         0.0000  0.0006  0.0000  0.0002  0.0000
                                         0.4621 -0.0255 -0.8829  0.0487 -0.0140
                                         0.0269  0.0310  0.0224  0.0387
               ( 30.85%)  -0.5554* O  2 s(  0.00%)p 1.00( 99.84%)d 0.00(  0.16%)
                                         0.0000 -0.0001  0.0000 -0.0002  0.0000
                                         0.4632  0.0040 -0.8853 -0.0076  0.0101
                                        -0.0193 -0.0194 -0.0140 -0.0242
  14. (0.00696) BD*( 2) C  1- O  2
               ( 66.01%)   0.8125* C  1 s( 34.21%)p 1.92( 65.60%)d 0.01(  0.19%)
                                         0.0000  0.5825  0.0533 -0.4120 -0.0413
                                        -0.6151 -0.0457 -0.3217 -0.0239  0.0303
                                         0.0158  0.0202 -0.0173 -0.0062
               ( 33.99%)  -0.5830* O  2 s( 40.54%)p 1.46( 59.25%)d 0.01(  0.21%)
                                         0.0000  0.6363  0.0217  0.4081  0.0090
                                         0.5781  0.0143  0.3023  0.0075  0.0331
                                         0.0173  0.0222 -0.0109 -0.0115
  15. (0.06665) BD*( 1) C  1- N  3
               ( 63.65%)   0.7978* C  1 s( 32.11%)p 2.11( 67.69%)d 0.01(  0.20%)
                                         0.0000  0.5656  0.0341  0.8211  0.0498
                                        -0.0128  0.0046 -0.0061  0.0024  0.0014
                                         0.0008 -0.0019  0.0395 -0.0212
               ( 36.35%)  -0.6029* N  3 s( 40.60%)p 1.46( 59.31%)d 0.00(  0.08%)
                                         0.0000  0.6372  0.0047 -0.7692 -0.0111
                                        -0.0319  0.0020 -0.0155  0.0010  0.0019
                                         0.0010  0.0043  0.0231 -0.0168
  16. (0.06898) BD*( 1) C  1- H  4
               ( 42.14%)   0.6491* C  1 s( 34.05%)p 1.93( 65.88%)d 0.00(  0.07%)
                                         0.0000 -0.5812  0.0520  0.3844  0.0099
                                        -0.6328  0.0217 -0.3315  0.0114  0.0133
                                         0.0070 -0.0143  0.0159  0.0022
               ( 57.86%)  -0.7607* H  4 s( 99.87%)p 0.00(  0.13%)
                                        -0.9992  0.0178 -0.0192  0.0273  0.0143
  17. (0.01547) BD*( 1) N  3- H  5
               ( 29.36%)   0.5419* N  3 s( 29.38%)p 2.40( 70.56%)d 0.00(  0.06%)
                                         0.0000 -0.5421  0.0010 -0.4804 -0.0228
                                         0.6100  0.0070  0.3195  0.0036  0.0146
                                         0.0076 -0.0146  0.0058  0.0083
               ( 70.64%)  -0.8405* H  5 s( 99.75%)p 0.00(  0.25%)
                                        -0.9987  0.0095  0.0251 -0.0388 -0.0203
  18. (0.01053) BD*( 1) N  3- H  6
               ( 29.75%)   0.5455* N  3 s( 29.90%)p 2.34( 70.04%)d 0.00(  0.06%)
                                         0.0000 -0.5468 -0.0008 -0.4193 -0.0235
                                        -0.6412 -0.0082 -0.3358 -0.0043 -0.0138
                                        -0.0072 -0.0162  0.0086  0.0080
               ( 70.25%)  -0.8381* H  6 s( 99.75%)p 0.00(  0.25%)
                                        -0.9987  0.0045  0.0241  0.0388  0.0204
  19. (0.01516) RY ( 1) C  1            s(  5.07%)p17.25( 87.53%)d 1.46(  7.40%)
                                         0.0000 -0.0314  0.2231  0.0677 -0.6396
                                         0.0330 -0.6011  0.0172 -0.3144 -0.1455
                                        -0.0765  0.0623 -0.1975  0.0638
  20. (0.00979) RY ( 2) C  1            s( 42.46%)p 0.44( 18.78%)d 0.91( 38.76%)
                                         0.0000 -0.0264  0.6511 -0.0524  0.2989
                                         0.0489 -0.2697  0.0256 -0.1410  0.1945
                                         0.1019 -0.2522  0.5163 -0.0959
  21. (0.00476) RY ( 3) C  1            s(  0.00%)p 1.00(  4.90%)d19.40( 95.10%)
                                         0.0000 -0.0001  0.0002 -0.0001 -0.0001
                                        -0.0308 -0.0981  0.0589  0.1870 -0.3708
                                         0.7080  0.3187  0.2292  0.3978
  22. (0.00211) RY ( 4) C  1            s( 15.47%)p 3.79( 58.62%)d 1.67( 25.91%)
                                         0.0000  0.0070  0.3932  0.0113 -0.5390
                                         0.0430  0.4796  0.0225  0.2515  0.4463
                                         0.2335  0.0344 -0.0640  0.0093
  23. (0.00019) RY ( 5) C  1            s( 25.04%)p 0.72( 18.01%)d 2.27( 56.95%)
                                         0.0000 -0.0060  0.5003 -0.0028  0.4228
                                         0.0230  0.0217  0.0120  0.0127 -0.0652
                                        -0.0344  0.2225 -0.6842  0.2157
  24. (0.00000) RY ( 6) C  1            s(  0.36%)p10.12(  3.67%)d99.99( 95.97%)
  25. (0.00000) RY ( 7) C  1            s( 11.22%)p 1.27( 14.23%)d 6.65( 74.55%)
  26. (0.00000) RY ( 8) C  1            s(  0.00%)p 1.00( 88.19%)d 0.13( 11.81%)
  27. (0.00000) RY ( 9) C  1            s(  0.00%)p 1.00(  7.29%)d12.71( 92.71%)
  28. (0.00197) RY ( 1) O  2            s(  0.29%)p99.99( 98.45%)d 4.36(  1.26%)
                                         0.0000 -0.0002  0.0538  0.0042  0.8546
                                        -0.0043 -0.4465 -0.0023 -0.2339  0.0600
                                         0.0314 -0.0409  0.0785 -0.0127
  29. (0.00065) RY ( 2) O  2            s(  0.00%)p 1.00( 95.46%)d 0.05(  4.54%)
                                         0.0000  0.0000  0.0003  0.0000  0.0003
                                         0.0074 -0.4529 -0.0141  0.8656 -0.0865
                                         0.1651  0.0588  0.0426  0.0735
  30. (0.00014) RY ( 3) O  2            s( 29.38%)p 2.20( 64.72%)d 0.20(  5.90%)
                                         0.0000 -0.0176  0.5418 -0.0200  0.3613
                                        -0.0193  0.6365 -0.0101  0.3326  0.1827
                                         0.0958 -0.0091  0.1137 -0.0583
  31. (0.00001) RY ( 4) O  2            s( 19.57%)p 0.94( 18.36%)d 3.17( 62.07%)
  32. (0.00000) RY ( 5) O  2            s(  6.43%)p 1.89( 12.15%)d12.67( 81.42%)
  33. (0.00000) RY ( 6) O  2            s( 43.49%)p 0.13(  5.52%)d 1.17( 51.00%)
  34. (0.00000) RY ( 7) O  2            s(  0.83%)p 1.39(  1.16%)d99.99( 98.01%)
  35. (0.00000) RY ( 8) O  2            s(  0.00%)p 1.00(  4.17%)d22.99( 95.83%)
  36. (0.00000) RY ( 9) O  2            s(  0.00%)p 1.00(  0.54%)d99.99( 99.46%)
  37. (0.00138) RY ( 1) N  3            s( 23.46%)p 3.00( 70.34%)d 0.26(  6.21%)
                                         0.0000 -0.0027  0.4843  0.0015 -0.0649
                                        -0.0052  0.7406 -0.0027  0.3881 -0.1963
                                        -0.1032  0.0692 -0.0900 -0.0035
  38. (0.00129) RY ( 2) N  3            s(  0.00%)p 1.00( 88.94%)d 0.12( 11.06%)
                                         0.0000  0.0000  0.0002  0.0000 -0.0006
                                        -0.0133 -0.4378  0.0254  0.8348  0.1442
                                        -0.2748 -0.0682 -0.0491 -0.0853
  39. (0.00058) RY ( 3) N  3            s( 49.49%)p 0.51( 25.01%)d 0.52( 25.49%)
                                         0.0000  0.0051  0.7035  0.0088 -0.3662
                                        -0.0063 -0.3012 -0.0033 -0.1586  0.4089
                                         0.2141  0.0911 -0.1805  0.0315
  40. (0.00014) RY ( 4) N  3            s( 20.08%)p 3.47( 69.70%)d 0.51( 10.21%)
                                         0.0000 -0.0218  0.4476 -0.0203  0.7962
                                         0.0053 -0.2220  0.0028 -0.1158 -0.1799
                                        -0.0941  0.1319  0.1169 -0.1728
  41. (0.00002) RY ( 5) N  3            s(  3.19%)p 4.50( 14.38%)d25.80( 82.42%)
  42. (0.00000) RY ( 6) N  3            s(  2.41%)p 5.72( 13.78%)d34.83( 83.82%)
  43. (0.00000) RY ( 7) N  3            s(  1.47%)p 4.67(  6.88%)d62.14( 91.64%)
  44. (0.00000) RY ( 8) N  3            s(  0.00%)p 0.00(  0.00%)d 1.00(100.00%)
  45. (0.00000) RY ( 9) N  3            s(  0.00%)p 1.00( 11.07%)d 8.03( 88.93%)
  46. (0.00709) RY ( 1) H  4            s( 99.14%)p 0.01(  0.86%)
                                         0.0194  0.9955  0.0441  0.0726  0.0379
  47. (0.00011) RY ( 2) H  4            s(  0.00%)p 1.00(100.00%)
                                         0.0000  0.0000  0.0005 -0.4633  0.8862
  48. (0.00006) RY ( 3) H  4            s(  0.84%)p99.99( 99.16%)
  49. (0.00002) RY ( 4) H  4            s(  0.15%)p99.99( 99.85%)
  50. (0.00450) RY ( 1) H  5            s( 98.53%)p 0.01(  1.47%)
                                         0.0155  0.9925  0.0363 -0.1026 -0.0539
  51. (0.00050) RY ( 2) H  5            s(  0.00%)p 1.00(100.00%)
                                         0.0000  0.0001 -0.0005 -0.4642  0.8857
  52. (0.00016) RY ( 3) H  5            s(  0.12%)p99.99( 99.88%)
                                        -0.0031  0.0344  0.8312  0.4913  0.2580
  53. (0.00004) RY ( 4) H  5            s(  1.61%)p61.14( 98.39%)
  54. (0.00191) RY ( 1) H  6            s( 96.43%)p 0.04(  3.57%)
                                         0.0139  0.9819  0.0926  0.1459  0.0762
  55. (0.00067) RY ( 2) H  6            s(  0.00%)p 1.00(100.00%)
                                         0.0000  0.0002 -0.0003 -0.4640  0.8858
  56. (0.00018) RY ( 3) H  6            s(  0.01%)p99.99( 99.99%)
                                        -0.0033  0.0111  0.8419 -0.4780 -0.2501
  57. (0.00003) RY ( 4) H  6            s(  3.80%)p25.29( 96.20%)


 NHO DIRECTIONALITY AND BOND BENDING (deviation from line of nuclear centers at
                                      the position of maximum hybrid amplitude)

         [Thresholds for printing:  angular deviation  >  1.0 degree]
                                    p- or d-character  > 25.0%
                                    orbital occupancy  >  0.10e

                        Line of Centers        Hybrid 1             Hybrid 2
                        ---------------  -------------------  ------------------
           NBO            Theta   Phi    Theta   Phi    Dev   Theta   Phi    Dev
 ===============================================================================
   4. LP ( 1) O  2          --     --    112.9  233.8   --      --     --    --
   5. LP ( 2) O  2          --     --    104.1  331.4   --      --     --    --
   6. LP ( 1) N  3          --     --     27.6  269.8   --      --     --    --
   7. BD ( 1) C  1- O  2  113.1  234.8   153.4   91.7  88.7   151.6   89.0  89.1
   8. BD ( 2) C  1- O  2  113.1  234.8   113.6  236.6   1.7     --     --    --
   9. BD ( 1) C  1- N  3   88.6    2.7    90.1  359.8   3.3     --     --    --
  10. BD ( 1) C  1- H  4   65.0  117.5    65.7  120.3   2.7     --     --    --
  11. BD ( 1) N  3- H  5  113.1  305.4   112.6  307.5   2.0     --     --    --
  12. BD ( 1) N  3- H  6   65.9   58.6    66.2   57.3   1.2     --     --    --


 SECOND ORDER PERTURBATION THEORY ANALYSIS OF FOCK MATRIX IN NBO BASIS

     Threshold for printing:   0.50 kcal/mol
                                                          E(2) E(NL)-E(L) F(L,NL)
      Donor (L) NBO              Acceptor (NL) NBO      kcal/mol   a.u.    a.u.
 ===============================================================================

 within unit  1
    4. LP ( 1) O  2            15. BD*( 1) C  1- N  3      0.96    1.02   0.028
    4. LP ( 1) O  2            16. BD*( 1) C  1- H  4      1.13    0.95   0.029
    4. LP ( 1) O  2            19. RY ( 1) C  1            6.80    1.14   0.079
    4. LP ( 1) O  2            20. RY ( 2) C  1            1.01    1.68   0.037
    5. LP ( 2) O  2            15. BD*( 1) C  1- N  3     25.16    0.71   0.120
    5. LP ( 2) O  2            16. BD*( 1) C  1- H  4     22.41    0.65   0.107
    5. LP ( 2) O  2            19. RY ( 1) C  1            0.82    0.84   0.023
    5. LP ( 2) O  2            20. RY ( 2) C  1            3.54    1.37   0.062
    5. LP ( 2) O  2            23. RY ( 5) C  1            0.96    1.57   0.035
    5. LP ( 2) O  2            32. RY ( 5) O  2            0.55    2.85   0.035
    6. LP ( 1) N  3            13. BD*( 1) C  1- O  2     61.82    0.29   0.119
    6. LP ( 1) N  3            21. RY ( 3) C  1            2.25    1.74   0.056
    6. LP ( 1) N  3            26. RY ( 8) C  1            1.02    0.83   0.026
    6. LP ( 1) N  3            38. RY ( 2) N  3            0.54    1.11   0.022
    6. LP ( 1) N  3            51. RY ( 2) H  5            0.94    1.81   0.037
    6. LP ( 1) N  3            55. RY ( 2) H  6            1.16    1.80   0.041
    7. BD ( 1) C  1- O  2      13. BD*( 1) C  1- O  2      1.28    0.38   0.020
    7. BD ( 1) C  1- O  2      38. RY ( 2) N  3            0.95    1.21   0.030
    8. BD ( 2) C  1- O  2      18. BD*( 1) N  3- H  6      1.30    1.31   0.037
    8. BD ( 2) C  1- O  2      37. RY ( 1) N  3            0.59    2.23   0.033
    9. BD ( 1) C  1- N  3      28. RY ( 1) O  2            0.64    1.89   0.031
    9. BD ( 1) C  1- N  3      54. RY ( 1) H  6            0.52    1.21   0.022
   10. BD ( 1) C  1- H  4      17. BD*( 1) N  3- H  5      4.90    0.94   0.060
   10. BD ( 1) C  1- H  4      28. RY ( 1) O  2            1.09    1.66   0.038
   11. BD ( 1) N  3- H  5      14. BD*( 2) C  1- O  2      0.91    1.25   0.030
   11. BD ( 1) N  3- H  5      16. BD*( 1) C  1- H  4      2.39    1.03   0.044
   11. BD ( 1) N  3- H  5      19. RY ( 1) C  1            0.72    1.22   0.027
   12. BD ( 1) N  3- H  6      14. BD*( 2) C  1- O  2      3.42    1.26   0.059
   12. BD ( 1) N  3- H  6      22. RY ( 4) C  1            0.92    1.70   0.035


 NATURAL BOND ORBITALS (Summary):

                                                     Principal Delocalizations
           NBO                 Occupancy    Energy   (geminal,vicinal,remote)
 ===============================================================================
 Molecular unit  1  (CH3NO)
 ------ Lewis --------------------------------------
    1. CR ( 1) C  1             1.99998   -10.28429
    2. CR ( 1) O  2             1.99999   -19.10492
    3. CR ( 1) N  3             1.99998   -14.35470
    4. LP ( 1) O  2             1.98059    -0.53535  19(v),16(v),20(v),15(v)
    5. LP ( 2) O  2             1.84673    -0.23395  15(v),16(v),20(v),23(v)
                                                     19(v),32(g)
    6. LP ( 1) N  3             1.74525    -0.26146  13(v),21(v),55(v),26(v)
                                                     51(v),38(g)
    7. BD ( 1) C  1- O  2       1.99863    -0.35663  13(g),38(v)
    8. BD ( 2) C  1- O  2       1.99622    -0.88668  18(v),37(v)
    9. BD ( 1) C  1- N  3       1.99593    -0.73805  28(v),54(v)
   10. BD ( 1) C  1- H  4       1.98291    -0.50918  17(v),28(v)
   11. BD ( 1) N  3- H  5       1.99139    -0.62236  16(v),14(v),19(v)
   12. BD ( 1) N  3- H  6       1.99218    -0.63175  14(v),22(v)
 ------ non-Lewis ----------------------------------
   13. BD*( 1) C  1- O  2       0.24813     0.02373
   14. BD*( 2) C  1- O  2       0.00696     0.62457
   15. BD*( 1) C  1- N  3       0.06665     0.48006
   16. BD*( 1) C  1- H  4       0.06898     0.41131
   17. BD*( 1) N  3- H  5       0.01547     0.42644
   18. BD*( 1) N  3- H  6       0.01053     0.42468
   19. RY ( 1) C  1             0.01516     0.60188
   20. RY ( 2) C  1             0.00979     1.13992
   21. RY ( 3) C  1             0.00476     1.47432
   22. RY ( 4) C  1             0.00211     1.06797
   23. RY ( 5) C  1             0.00019     1.33902
   24. RY ( 6) C  1             0.00000     1.77177
   25. RY ( 7) C  1             0.00000     1.58491
   26. RY ( 8) C  1             0.00000     0.56751
   27. RY ( 9) C  1             0.00000     1.31722
   28. RY ( 1) O  2             0.00197     1.15550
   29. RY ( 2) O  2             0.00065     1.09086
   30. RY ( 3) O  2             0.00014     1.44340
   31. RY ( 4) O  2             0.00001     2.44987
   32. RY ( 5) O  2             0.00000     2.61514
   33. RY ( 6) O  2             0.00000     2.64934
   34. RY ( 7) O  2             0.00000     2.75776
   35. RY ( 8) O  2             0.00000     2.71051
   36. RY ( 9) O  2             0.00000     2.77751
   37. RY ( 1) N  3             0.00138     1.34781
   38. RY ( 2) N  3             0.00129     0.85042
   39. RY ( 3) N  3             0.00058     1.72315
   40. RY ( 4) N  3             0.00014     0.99541
   41. RY ( 5) N  3             0.00002     2.04521
   42. RY ( 6) N  3             0.00000     2.25771
   43. RY ( 7) N  3             0.00000     2.23166
   44. RY ( 8) N  3             0.00000     1.90587
   45. RY ( 9) N  3             0.00000     1.86988
   46. RY ( 1) H  4             0.00709     0.35167
   47. RY ( 2) H  4             0.00011     1.53532
   48. RY ( 3) H  4             0.00006     2.00951
   49. RY ( 4) H  4             0.00002     1.85447
   50. RY ( 1) H  5             0.00450     0.41537
   51. RY ( 2) H  5             0.00050     1.54518
   52. RY ( 3) H  5             0.00016     1.70544
   53. RY ( 4) H  5             0.00004     2.22270
   54. RY ( 1) H  6             0.00191     0.46703
   55. RY ( 2) H  6             0.00067     1.54261
   56. RY ( 3) H  6             0.00018     1.70881
   57. RY ( 4) H  6             0.00003     2.17047
          -------------------------------
                 Total Lewis   23.52980  ( 98.0408%)
           Valence non-Lewis    0.41672  (  1.7363%)
           Rydberg non-Lewis    0.05348  (  0.2228%)
          -------------------------------
               Total unit  1   24.00000  (100.0000%)
              Charge unit  1    0.00000

 $CHOOSE
   LONE 2 2 3 1 END
   BOND D 1 2 S 1 3 S 1 4 S 3 5 S 3 6 END
 $END

 NBO analysis completed in 0.06 CPU seconds (0 wall seconds)
 Maximum scratch memory used by NBO was 314673 words (2.40 MB)
Stopping NBO...Storing NBOs: nbo.nbo

                                *** returned from  NBO  program ***

-------
TIMINGS
-------

Total SCF time: 0 days 0 hours 0 min 3 sec 

Total time                  ....       3.360 sec
Sum of individual times     ....       3.354 sec  ( 99.8%)

SCF preparation             ....       0.057 sec  (  1.7%)
Fock matrix formation       ....       3.207 sec  ( 95.4%)
  Startup                   ....       0.000 sec  (  0.0% of F)
  Split-RI-J                ....       0.163 sec  (  5.1% of F)
  Chain of spheres X        ....       2.048 sec  ( 63.9% of F)
  XC integration            ....       0.985 sec  ( 30.7% of F)
    XC Preparation          ....       0.000 sec  (  0.0% of XC)
    Basis function eval.    ....       0.479 sec  ( 48.6% of XC)
    Density eval.           ....       0.145 sec  ( 14.7% of XC)
    XC-Functional eval.     ....       0.158 sec  ( 16.1% of XC)
    XC-Potential eval.      ....       0.166 sec  ( 16.9% of XC)
Diagonalization             ....       0.000 sec  (  0.0%)
Density matrix formation    ....       0.005 sec  (  0.1%)
Total Energy calculation    ....       0.000 sec  (  0.0%)
Population analysis         ....       0.075 sec  (  2.2%)
Orbital Transformation      ....       0.002 sec  (  0.1%)
Orbital Orthonormalization  ....       0.000 sec  (  0.0%)
DIIS solution               ....       0.005 sec  (  0.2%)
SOSCF solution              ....       0.003 sec  (  0.1%)
Finished LeanSCF after   3.4 sec

Maximum memory used throughout the entire LEANSCF-calculation: 8.1 MB

-------------------------   --------------------
FINAL SINGLE POINT ENERGY      -169.813928237068
-------------------------   --------------------


------------------------------------------------------------------------------
                              ORCA PROPERTY CALCULATIONS
------------------------------------------------------------------------------

GBWName                                 ... nbo.gbw
Number of atoms                         ...      6
Number of basis functions               ...     75
Max core memory                         ...   1024 MB

Electric properties:
Dipole moment                           ... YES
Quadrupole moment                       ...  NO
Static polarizability (Dipole/Dipole)   ...  NO
Static polarizability (Dipole/Quad.)    ...  NO
Static polarizability (Quad./Quad.)     ...  NO
Static polarizability (Velocity)        ...  NO

Atomic electric properties:
Dipole moment                           ...  NO
Quadrupole moment                       ...  NO
Static polarizability                   ...  NO

Choice of electric origin               ... Center of mass
Position of electric origin             ...     2.374558    -0.798645    -0.281662

General magnetic properties:
Magnetizability                         ...  NO

EPR properties:
g-Tensor (aka g-matrix)                 ...  NO
Zero-Field splitting spin-orbit         ...  NO
Zero-field splitting spin-spin          ...  NO
Hyperfine couplings                     ...  NO (   0 nuclei)
Quadrupole couplings                    ...  NO (   0 nuclei)
Contact density                         ...  NO (   0 nuclei)

NMR properties:
Chemical shifts                         ...  NO (   0 nuclei)
Spin-rotation constants                 ...  NO (   0 nuclei)
Spin-spin couplings                     ...  NO (   0 nuclei,    0 pairs)

Choice of magnetic origin               ... GIAO
Position of magnetic origin             ...     0.000000     0.000000     0.000000

Properties with geometric perturbations:
SCF Hessian                             ...  NO
IR spectrum                             ...  NO
VCD spectrum                            ...  NO
X-ray spectroscopy properties:
SCF XES/XAS/RIXS spectra                ...  NO


-------------
DIPOLE MOMENT
-------------

Method             : SCF
Type of density    : Electron Density
Multiplicity       :   1
Irrep              :   0
Energy             :  -169.8139282370675005 Eh
Relativity type    : 
Basis              : AO
                                X                 Y                 Z
Electronic contribution:     -1.133829646      -0.982711938      -0.515411947
Nuclear contribution   :      2.311971109       1.773212170       0.929223552
                        -----------------------------------------
Total Dipole Moment    :      1.178141463       0.790500232       0.413811605
                        -----------------------------------------
Magnitude (a.u.)       :      1.477886317
Magnitude (Debye)      :      3.756488486



--------------------
Rotational spectrum 
--------------------
 
Rotational constants in cm-1:             2.433529             0.376269             0.325882 
Rotational constants in MHz :         72955.371337         11280.260425          9769.685719 

Dipole components along the rotational axes: 
x,y,z [a.u.] :     1.458028    -0.241461     0.000032 
x,y,z [Debye]:     3.706012    -0.613745     0.000082 

 

Dipole moment calculation done in   0.0 sec 

Maximum memory used throughout the entire PROP-calculation: 4.7 MB

--------------------------------
SUGGESTED CITATIONS FOR THIS RUN
--------------------------------

Below you find a list of papers that are relevant to this ORCA run
We neither can nor want to force you to cite these papers, but we appreciate if you do
You receive ORCA, which is the product of decades of hard work by many enthusiastic individuals, for free
The only thing we kindly ask in return is that you cite our papers,
We deeply appreciate it, if you show your appreciation for ORCA by not just citing the generic ORCA reference.

Please note that relegating all ORCA citations to the supporting information does *not* help us.
SI sections are not indexed - citations you put there will not count into any citation statistics
But we need these citations in order to attract the funding resources that allow us to do what we are doing

Therefore, if you are a happy ORCA user, please consider citing a few of the papers listed below in the main body of your paper

In addition to the list printed below, the program has created the file nbo.bibtex that contains the list in bibtex format
You can import this file easily into all common literature databanks and citation aid programs


List of essential papers. We consider these as the minimum necessary citations

  1. Neese,F.
     Software update: the ORCA program system, version 5.0
     WIRES Comput. Molec. Sci., 2022 12(1)e1606
     doi.org/10.1002/wcms.1606

List of papers to cite with high priority. The work reported in these papers was absolutely
necessary for this run to complete.
Our perspective: the developers of density functionals and basis sets usually get cited in chemistry papers
Good! But without the algorithms to do something with them, the functionals or basis sets would not do anything.
Hence, in our opinion, the algorithm design and method developments papers are equally worthy of getting cited

  1. Neese,F.
     An improvement of the resolution of the identity approximation for the formation of the Coulomb matrix
     J. Comp. Chem., 2003 24(14)1740-1747
     doi.org/10.1002/jcc.10318
  2. Neese,F.; Wennmohs,F.; Hansen,A.; Becker,U.
     Efficient, approximate and parallel Hartree-Fock and hybrid DFT calculations. A 'chain-of-spheres' algorithm for the Hartree-Fock exchange
     Chem. Phys., 2009 356(1-3)98-109
     doi.org/10.1016/j.chemphys.2008.10.036
  3. Helmich-Paris,B.; de Souza,B.; Neese,F.; Izsák,R.
     An improved chain of spheres for exchange algorithm
     J. Chem. Phys., 2021 155 104109
     doi.org/doi: 10.1063/5.0058766.
  4. Neese,F.
     The SHARK Integral Generation and Digestion System
     J. Comp. Chem., 2022  1-16
     doi.org/10.1002/jcc.26942

List of suggested additional citations. These are papers that are important in the 'surrounding' of 
of this run, or papers that preceded the highly important papers. If you like your results we are grateful for a citation.

  1. Izsak,R.; Neese,F.
     An overlap fitted chain of spheres exchange method
     J. Chem. Phys., 2011 135 144105
     doi.org/10.1063/1.3646921
  2. Izsak,R.; Hansen,A.; Neese,F.
     The resolution of identity and chain of spheres approximations for the LPNO-CCSD singles Fock term
     Molec. Phys., 2012 110 2413-2417
     doi.org/10.1080/00268976.2012.687466
  3. Neese,F.
     The ORCA program system
     WIRES Comput. Molec. Sci., 2012 2(1)73-78
     doi.org/10.1002/wcms.81
  4. Izsak,R.; Neese,F.; Klopper,W.
     Robust fitting techniques in the chain of spheres approximation to the Fock exchange: The role of the complementary space
     J. Chem. Phys., 2013 139 
     doi.org/10.1063/1.4819264
  5. Neese,F.
     Software update: the ORCA program system, version 4.0
     WIRES Comput. Molec. Sci., 2018 8(1)1-6
     doi.org/10.1002/wcms.1327
  6. Neese,F.; Wennmohs,F.; Becker,U.; Riplinger,C.
     The ORCA quantum chemistry program package
     J. Chem. Phys., 2020 152 Art. No. L224108
     doi.org/10.1063/5.0004608

List of optional additional citations

  1. Neese,F.
     Approximate second-order SCF convergence for spin unrestricted wavefunctions
     Chem. Phys. Lett., 2000 325(1-3)93-98
     doi.org/10.1016/s0009-2614(00)00662-x

Timings for individual modules:

Sum of individual times          ...        4.489 sec (=   0.075 min)
Startup calculation              ...        0.920 sec (=   0.015 min)  20.5 %
SCF iterations                   ...        3.513 sec (=   0.059 min)  78.3 %
Property calculations            ...        0.056 sec (=   0.001 min)   1.3 %
                             ****ORCA TERMINATED NORMALLY****
TOTAL RUN TIME: 0 days 0 hours 0 minutes 4 seconds 742 msec
