6
Properties=species:S:1:pos:R:3 Coordinates=T from=T ORCA-job=T opt=T E=T -169.813928828772=T pbc="F F F"
C        0.98845997      -0.14187347      -0.00245772
O        0.34550668      -1.05473735      -0.47981048
N        2.34916480      -0.07794885       0.03147344
H        0.52067612       0.75831762       0.46969768
H        2.88764939      -0.65042789      -0.61027711
H        2.83356132       0.52711415       0.68173748
