
                                 *****************
                                 * O   R   C   A *
                                 *****************

                                            #,                                       
                                            ###                                      
                                            ####                                     
                                            #####                                    
                                            ######                                   
                                           ########,                                 
                                     ,,################,,,,,                         
                               ,,#################################,,                 
                          ,,##########################################,,             
                       ,#########################################, ''#####,          
                    ,#############################################,,   '####,        
                  ,##################################################,,,,####,       
                ,###########''''           ''''###############################       
              ,#####''   ,,,,##########,,,,          '''####'''          '####       
            ,##' ,,,,###########################,,,                        '##       
           ' ,,###''''                  '''############,,,                           
         ,,##''                                '''############,,,,        ,,,,,,###''
      ,#''                                            '''#######################'''  
     '                                                          ''''####''''         
             ,#######,   #######,   ,#######,      ##                                
            ,#'     '#,  ##    ##  ,#'     '#,    #''#        ,####,   ,####,        
            ##       ##  ##   ,#'  ##            #'  '#       #'       #'  '#        
            ##       ##  #######   ##           ,######,      #####,   #    #        
            '#,     ,#'  ##    ##  '#,     ,#' ,#      #,     #,   #   #,  ,#        
             '#######'   ##     ##  '#######'  #'      '#     '####' # '####'        



                #########################################################
                #                        -***-                          #
                #          Department of theory and spectroscopy        #
                #                                                       #
                #                      Frank Neese                      #
                #                                                       #
                #     Directorship, Architecture, Infrastructure        #
                #                    SHARK, DRIVERS                     #
                #        Core code/Algorithms in most modules           #
                #                                                       #
                #        Max Planck Institute fuer Kohlenforschung      #
                #                Kaiser Wilhelm Platz 1                 #
                #                 D-45470 Muelheim/Ruhr                 #
                #                      Germany                          #
                #                                                       #
                #                  All rights reserved                  #
                #                        -***-                          #
                #########################################################


                         Program Version 6.0.1  -  RELEASE   -


 With contributions from (in alphabetic order):
[Max-Planck-Institut fuer Kohlenforschung]                               
  Daniel Aravena         : Magnetic Suceptibility                        
  Michael Atanasov       : Ab Initio Ligand Field Theory (pilot matlab implementation)
  Alexander A. Auer      : GIAO ZORA, VPT2 properties, NMR spectrum      
  Ute Becker             : All parallelization in ORCA, NUMFREQ, NUMCALC 
  Giovanni Bistoni       : ED, misc. LED, open-shell LED, HFLD           
  Martin Brehm           : Molecular dynamics                            
  Dmytro Bykov           : pre 5.0 version of the SCF Hessian            
  Marcos Casanova-Páez   : Triplet and SCS-CIS(D). UHF-(DLPNO)-IP/EA/STEOM-CCSD. UHF-CVS-IP/STEOM-CCSD   
  Vijay G. Chilkuri      : MRCI spin determinant printing, contributions to CSF-ICE 
  Pauline Colinet        : FMM embedding                                 
  Dipayan Datta          : RHF DLPNO-CCSD density                        
  Achintya Kumar Dutta   : EOM-CC, STEOM-CC                              
  Nicolas Foglia         : Exact transition moments, OPA infrastructure, MCD improvements    
  Dmitry Ganyushin       : Spin-Orbit,Spin-Spin,Magnetic field MRCI      
  Miquel Garcia-Rates    : C-PCM and meta-GGA Hessian, CCSD/C-PCM, Gaussian charge scheme 
  Tiago L. C. Gouveia    : GS-ROHF, GS-ROCIS                             
  Yang Guo               : DLPNO-NEVPT2, F12-NEVPT2, CIM, IAO-localization        
  Andreas Hansen         : Spin unrestricted coupled pair/coupled cluster methods 
  Ingolf Harden          : AUTO-CI MPn and infrastructure                
  Benjamin Helmich-Paris : MC-RPA, TRAH-(SCF,CASSCF), AVAS, COSX integrals, SCF dyn. polar. 
  Lee Huntington         : MR-EOM, pCC                                   
  Robert Izsak           : Overlap fitted RIJCOSX, COSX-SCS-MP3, EOM     
  Riya Kayal             : Wick's Theorem for AUTO-CI, AUTO-CI UHF-CCSDT 
  Emily Kempfer          : AUTO-CI, RHF CISDT and CCSDT                  
  Christian Kollmar      : KDIIS, OOCD, Brueckner-CCSD(T), CCSD density, CASPT2, CASPT2-K, improved NEVPT2 
  Axel Koslowski         : Symmetry handling                             
  Simone Kossmann        : meta-GGA functionals, TD-DFT gradient, OOMP2, (MP2 Hessian; deprecated post 5.0) 
  Lucas Lang             : DCDCAS                                        
  Marvin Lechner         : AUTO-CI (C++ implementation), FIC-MRCC        
  Spencer Leger          : CASSCF response                               
  Dagmar Lenk            : GEPOL surface, SMD, ORCA-2-JSON               
  Dimitrios Liakos       : Extrapolation schemes; Compound Job, initial MDCI parallelization 
  Dimitrios Manganas     : Further ROCIS development; embedding schemes. LFT, Crystal Embedding 
  Dimitrios Pantazis     : SARC Basis sets                               
  Anastasios Papadopoulos: AUTO-CI, single reference methods and gradients 
  Taras Petrenko         : pre 6.0 DFT Hessian and TD-DFT gradient, (ASA, deprecated), ECA, 1-Electron XAS/XES, NRVS 
  Peter Pinski           : DLPNO-MP2, DLPNO-MP2 Gradient                 
  Christoph Reimann      : Effective Core Potentials                     
  Marius Retegan         : Local ZFS, SOC                                
  Christoph Riplinger    : Optimizer, TS searches, QM/MM, DLPNO-CCSD(T), (RO)-DLPNO pert. Triples 
  Michael Roemelt        : Original ROCIS implementation                 
  Masaaki Saitow         : Open-shell DLPNO-CCSD energy and density      
  Barbara Sandhoefer     : DKH picture change effects                    
  Kantharuban Sivalingam : CASSCF convergence/infrastructure, NEVPT2 and variants, FIC-MRCI 
  Bernardo de Souza      : ESD, SOC TD-DFT                               
  Georgi L. Stoychev     : AutoAux, RI-MP2 NMR, DLPNO-MP2 response, X2C  
  Van Anh Tran           : RI-MP2 g-tensors                              
  Willem Van den Heuvel  : Paramagnetic NMR                              
  Zikuan Wang            : NOTCH, Electric field optimization            
  Frank Wennmohs         : Technical directorship and infrastructure     
  Hang Xu                : AUTO-CI-Response properties                   
                                                                         
[FACCTs GmbH]                                                            
  Markus Bursch, Miquel Garcia-Rates, Christoph Riplinger, Bernardo de Souza, Georgi L. Stoychev 
                                                                 
  APM, Basis sets (HGBS, AHGBS, def-TZVP (Ac-Lr), def2-XVPD (La-Lu)), CI-OPT, improved COSX, DLPNO-Multilevel,           
  DOCKER, DRACO, updates on ESD, GOAT, IRC, LR-CPCM, MBIS, meta-GGA TD-DFT gradient, ML-optimized integration grids, 
  MM, NACMEs, nearIR, NEB, NEB-TS, NL-DFT gradient (VV10), 2- and 3-layer-ONIOM, interface openCOSMO-RS, QMMM,   
  Crystal-QMMM, SF, symmetry and pop. for TD-DFT, r2SCAN hybrids, SOLVATOR                                   
                                                                         
[Other institutions]                                                     
  V. Asgeirsson          : NEB                                           
  Christoph Bannwarth    : sTDA-DFT, sTD-DFT, PBEh-3c, B97-3c, D3        
  Sebastian Ehlert       : rSCAN, r2SCAN, r2SCAN-3c, D4, dhf basis sets  
  Marvin Friede          : D4 for Fr, Ra, Ac-Lr                          
  Lars Goerigk           : TD-DFT with DH, B97 family of functionals     
  Stefan Grimme          : VdW corrections, initial TS optimization, DFT functionals, gCP, sTDA/sTD-DF 
  Waldemar Hujo          : DFT-NL                                        
  H. Jonsson             : NEB                                           
  Holger Kruse           : gCP                                           
  Marcel Mueller         : wB97X-3c, vDZP basis set                      
  Hagen Neugebauer       : wr2SCAN                                       
  Tobias Risthaus        : range-separated hybrid DFT                    
  Lukas Wittmann         : regularized MP2, r2SCAN double-hybrids, wr2SCAN        
                                                                         
We gratefully acknowledge several colleagues who have allowed us to      
interface, adapt or use parts of their codes:                            
  Ed Valeev, F. Pavosevic, A. Kumar             : LibInt (2-el integral package), F12 methods 
  Garnet Chan, S. Sharma, J. Yang, R. Olivares  : DMRG                   
  Ulf Ekstrom                                   : XCFun DFT Library      
  Mihaly Kallay                                 : mrcc  (arbitrary order and MRCC methods)
  Frank Weinhold                                : gennbo (NPA and NBO analysis)           
  Simon Mueller                                 : openCOSMO-RS                            
  Christopher J. Cramer and Donald G. Truhlar   : smd solvation model                     
  S Lehtola, MJT Oliveira, MAL Marques          : LibXC Library                           
  Liviu Ungur et al                             : ANISO software                          


 Your calculation uses the libint2 library for the computation of 2-el integrals
 For citations please refer to: http://libint.valeyev.net

 Your ORCA version has been built with support for libXC version: 6.2.2
 For citations please refer to: https://libxc.gitlab.io

 This ORCA versions uses:
   CBLAS   interface :  Fast vector & matrix operations
   LAPACKE interface :  Fast linear algebra routines
   SCALAPACK package :  Parallel linear algebra routines
   Shared memory     :  Shared parallel matrices
   BLAS/LAPACK       :  OpenBLAS 0.3.27  USE64BITINT DYNAMIC_ARCH NO_AFFINITY Haswell SINGLE_THREADED
        Core in use  :  Haswell
   Copyright (c) 2011-2014, The OpenBLAS Project




***************************************
The coordinates will be read from file: init.xyz
***************************************


================================================================================

----- Orbital basis set information -----
Your calculation utilizes the basis: cc-pVDZ 
       H, B-Ne : Obtained from the ccRepo (grant-hill.group.shef.ac.uk/ccrepo) Feb. 2017
                 T. H. Dunning, Jr., J. Chem. Phys. 90, 1007 (1989)
            He : Obtained from the ccRepo (grant-hill.group.shef.ac.uk/ccrepo) Feb. 2017
                 D. E. Woon, T. H. Dunning, Jr., J. Chem. Phys. 100, 2975 (1994)
  Li-Be, Na-Mg : Obtained from the ccRepo (grant-hill.group.shef.ac.uk/ccrepo) Feb. 2017
                 B. P. Prascher, D. E. Woon, K. A. Peterson, T. H. Dunning, Jr., A. K. Wilson, Theor. Chem. Acc. 128, 69 (2011)
         Al-Ar : Obtained from the ccRepo (grant-hill.group.shef.ac.uk/ccrepo) Feb. 2017
                 D. E. Woon, T. H. Dunning, Jr., J. Chem. Phys. 98, 1358 (1993)
            Ca : Obtained from the Peterson Research Group Website (tyr0.chem.wsu.edu/~kipeters) Feb. 2017
                 J. Koput, K. A. Peterson, J. Phys. Chem. 106, 9595 (2002)
         Sc-Zn : Obtained from the ccRepo (grant-hill.group.shef.ac.uk/ccrepo) Feb. 2017
                 N. B. Balabanov, K. A. Peterson, J. Chem. Phys. 123, 064107 (2005)
                 N. B. Balabanov, K. A. Peterson, J. Chem. Phys. 125, 074110 (2006)
         Ga-Kr : Obtained from the ccRepo (grant-hill.group.shef.ac.uk/ccrepo) Feb. 2017
                 A. K. Wilson, D. E. Woon, K. A. Peterson, T. H. Dunning, Jr., J. Chem. Phys. 110, 7667 (1999)

----- AuxJ basis set information -----
Your calculation utilizes the auxiliary basis: def2/J
   F. Weigend, Phys. Chem. Chem. Phys. 8, 1057 (2006).

================================================================================
                                        WARNINGS
                       Please study these warnings very carefully!
================================================================================


WARNING: Geometry Optimization
  ===> : Switching off AutoStart
         For restart on a previous wavefunction, please use MOREAD

================================================================================
                                       INPUT FILE
================================================================================
NAME = opt.com
|  1> ! B3LYP cc-pVDZ def2/J RIJCOSX Opt Freq
|  2> 
|  3> * xyzfile 0 1 init.xyz 
|  4> 
|  5>                          ****END OF INPUT****
================================================================================

                       *****************************
                       * Geometry Optimization Run *
                       *****************************

Geometry optimization settings:
Update method            Update   .... BFGS
Choice of coordinates    CoordSys .... (2022) Redundant Internals
Initial Hessian          InHess   .... Almloef's Model
Max. no of cycles        MaxIter  .... 50

Convergence Tolerances:
Energy Change            TolE     ....  5.0000e-06 Eh
Max. Gradient            TolMAXG  ....  3.0000e-04 Eh/bohr
RMS Gradient             TolRMSG  ....  1.0000e-04 Eh/bohr
Max. Displacement        TolMAXD  ....  4.0000e-03 bohr
RMS Displacement         TolRMSD  ....  2.0000e-03 bohr
Strict Convergence                .... False

------------------------------------------------------------------------------
                        ORCA OPTIMIZATION COORDINATE SETUP
------------------------------------------------------------------------------

The optimization will be done in redundant internal coordinates (2022)
Making redundant internal coordinates   ...  (2022 redundants) done
Evaluating the initial hessian          ...  (Almloef) done
Evaluating the coordinates              ...  done
Calculating the B-matrix                .... done
Calculating the G-matrix                .... done
Diagonalizing the G-matrix              .... done
The first mode is                       ....    3
The number of degrees of freedom        ....   12

    -----------------------------------------------------------------
                    Redundant Internal Coordinates


    -----------------------------------------------------------------
         Definition                    Initial Value    Approx d2E/dq
    -----------------------------------------------------------------
      1. B(O   1,C   0)                  1.2209         1.041494   
      2. B(N   2,C   0)                  1.3586         0.628045   
      3. B(H   3,C   0)                  1.1019         0.344738   
      4. B(H   4,N   2)                  1.0116         0.430116   
      5. B(H   5,N   2)                  1.0098         0.433092   
      6. A(N   2,C   0,H   3)          113.1386         0.348925   
      7. A(O   1,C   0,N   2)          123.2145         0.471806   
      8. A(O   1,C   0,H   3)          123.6469         0.380451   
      9. A(H   4,N   2,H   5)          119.2297         0.303009   
     10. A(C   0,N   2,H   5)          122.7382         0.359511   
     11. A(C   0,N   2,H   4)          118.0321         0.359089   
     12. D(H   4,N   2,C   0,H   3)   -179.9999         0.032005   
     13. D(H   5,N   2,C   0,O   1)    179.9999         0.032005   
     14. D(H   5,N   2,C   0,H   3)      0.0006         0.032005   
     15. D(H   4,N   2,C   0,O   1)     -0.0007         0.032005   
    -----------------------------------------------------------------

Number of atoms                         .... 6
Number of degrees of freedom            .... 15


         *************************************************************
         *                GEOMETRY OPTIMIZATION CYCLE   1            *
         *************************************************************
---------------------------------
CARTESIAN COORDINATES (ANGSTROEM)
---------------------------------
  C      0.988610   -0.127920    0.005370
  O      0.369340   -1.060000   -0.482830
  N      2.345650   -0.070480    0.035450
  H      0.507760    0.750320    0.465360
  H      2.863160   -0.840500   -0.367860
  H      2.850570    0.704150    0.441180

----------------------------
CARTESIAN COORDINATES (A.U.)
----------------------------
  NO LB      ZA    FRAG     MASS         X           Y           Z
   0 C     6.0000    0    12.011    1.868202   -0.241734    0.010148
   1 O     8.0000    0    15.999    0.697951   -2.003110   -0.912416
   2 N     7.0000    0    14.007    4.432636   -0.133188    0.066991
   3 H     1.0000    0     1.008    0.959527    1.417899    0.879403
   4 H     1.0000    0     1.008    5.410588   -1.588315   -0.695155
   5 H     1.0000    0     1.008    5.386797    1.330651    0.833709

--------------------------------
INTERNAL COORDINATES (ANGSTROEM)
--------------------------------
 C      0   0   0     0.000000000000     0.00000000     0.00000000
 O      1   0   0     1.220904459530     0.00000000     0.00000000
 N      1   2   0     1.358588135382   123.21450388     0.00000000
 H      1   2   3     1.101867968588   123.64690113   179.99919746
 H      3   1   2     1.011635486032   118.03213115     0.00000000
 H      3   1   2     1.009758721775   122.73817984   179.99989830

---------------------------
INTERNAL COORDINATES (A.U.)
---------------------------
 C      0   0   0     0.000000000000     0.00000000     0.00000000
 O      1   0   0     2.307175064195     0.00000000     0.00000000
 N      1   2   0     2.567359504666   123.21450388     0.00000000
 H      1   2   3     2.082228696371   123.64690113   179.99919746
 H      3   1   2     1.911714015958   118.03213115     0.00000000
 H      3   1   2     1.908167445492   122.73817984   179.99989830

---------------------
BASIS SET INFORMATION
---------------------
There are 4 groups of distinct atoms

 Group   1 Type C   : 17s4p1d contracted to 3s2p1d pattern {881/31/1}
 Group   2 Type O   : 17s4p1d contracted to 3s2p1d pattern {881/31/1}
 Group   3 Type N   : 17s4p1d contracted to 3s2p1d pattern {881/31/1}
 Group   4 Type H   : 4s1p contracted to 2s1p pattern {31/1}

Atom   0C    basis set group =>   1
Atom   1O    basis set group =>   2
Atom   2N    basis set group =>   3
Atom   3H    basis set group =>   4
Atom   4H    basis set group =>   4
Atom   5H    basis set group =>   4
---------------------------------
AUXILIARY/J BASIS SET INFORMATION
---------------------------------
There are 4 groups of distinct atoms

 Group   1 Type C   : 12s5p4d2f1g contracted to 6s4p3d1f1g pattern {711111/2111/211/2/1}
 Group   2 Type O   : 12s5p4d2f1g contracted to 6s4p3d1f1g pattern {711111/2111/211/2/1}
 Group   3 Type N   : 12s5p4d2f1g contracted to 6s4p3d1f1g pattern {711111/2111/211/2/1}
 Group   4 Type H   : 5s2p1d contracted to 3s1p1d pattern {311/2/1}

Atom   0C    basis set group =>   1
Atom   1O    basis set group =>   2
Atom   2N    basis set group =>   3
Atom   3H    basis set group =>   4
Atom   4H    basis set group =>   4
Atom   5H    basis set group =>   4
------------------------------------------------------------------------------
                             ORCA STARTUP CALCULATIONS
                           -- RI-GTO INTEGRALS CHOSEN --
------------------------------------------------------------------------------
------------------------------------------------------------------------------
                   ___                                                        
                  /   \      - P O W E R E D   B Y -                         
                 /     \                                                     
                 |  |  |   _    _      __       _____    __    __             
                 |  |  |  | |  | |    /  \     |  _  \  |  |  /  |          
                  \  \/   | |  | |   /    \    | | | |  |  | /  /          
                 / \  \   | |__| |  /  /\  \   | |_| |  |  |/  /          
                |  |  |   |  __  | /  /__\  \  |    /   |      \           
                |  |  |   | |  | | |   __   |  |    \   |  |\   \          
                \     /   | |  | | |  |  |  |  | |\  \  |  | \   \       
                 \___/    |_|  |_| |__|  |__|  |_| \__\ |__|  \__/        
                                                                              
                      - O R C A' S   B I G   F R I E N D -                    
                                      &                                       
                       - I N T E G R A L  F E E D E R -                       
                                                                              
 v1 FN, 2020, v2 2021, v3 2022-2024                                           
------------------------------------------------------------------------------


----------------------
SHARK INTEGRAL PACKAGE
----------------------

Number of atoms                             ...      6
Number of basis functions                   ...     75
Number of shells                            ...     45
Maximum angular momentum                    ...      2
Integral batch strategy                     ... SHARK/LIBINT Hybrid
RI-J (if used) integral strategy            ... SPLIT-RIJ (Revised 2003 algorithm where possible)
Printlevel                                  ...      1
Contraction scheme used                     ... PARTIAL GENERAL contraction
Prescreening option                         ... SCHWARTZ
   Thresh                                   ... 2.500e-11
   Tcut                                     ... 2.500e-12
   Tpresel                                  ... 2.500e-12 
Coulomb Range Separation                    ... NOT USED
Exchange Range Separation                   ... NOT USED
Multipole approximations                    ... NOT USED
Finite Nucleus Model                        ... NOT USED
CABS basis                                  ... NOT available
Auxiliary Coulomb fitting basis             ... AVAILABLE
   # of basis functions in Aux-J            ...    180
   # of shells in Aux-J                     ...     60
   Maximum angular momentum in Aux-J        ...      4
Auxiliary J/K fitting basis                 ... NOT available
Auxiliary Correlation fitting basis         ... NOT available
Auxiliary 'external' fitting basis          ... NOT available

Checking pre-screening integrals            ... done (  0.0 sec) Dimension = 45
Save PGC pre-screening integrals            ... done (  0.0 sec) Dimension = 45
Calculate PGC overlap integrals             ... done (  0.0 sec) Dimension = 27
Calculating pre-screening integrals (ORCA)  ... done (  0.1 sec) Dimension = 27
Check shell pair data                       ... done (  0.0 sec)
Shell pair information
Shell pair cut-off parameter TPreSel        ...   2.5e-12
Total number of shell pairs                 ...      1035
Shell pairs after pre-screening             ...       908
Total number of primitive shell pairs       ...      1671
Primitive shell pairs kept                  ...      1393
          la=0 lb=0:    436 shell pairs
          la=1 lb=0:    295 shell pairs
          la=1 lb=1:     45 shell pairs
          la=2 lb=0:     99 shell pairs
          la=2 lb=1:     27 shell pairs
          la=2 lb=2:      6 shell pairs

Calculating one electron integrals          ... done (  0.0 sec)
Calculating RI/J V-Matrix + Cholesky decomp.... done (  0.0 sec)
Calculating Nuclear repulsion               ... done (  0.0 sec) ENN=     71.102532511334 Eh

Diagonalization of the overlap matrix:
Smallest eigenvalue                        ... 7.895e-03
Time for diagonalization                   ...    0.003 sec
Threshold for overlap eigenvalues          ... 1.000e-07
Number of eigenvalues below threshold      ... 0
Time for construction of square roots      ...    0.000 sec
Total time needed                          ...    0.005 sec

-------------------
DFT GRID GENERATION
-------------------

General Integration Accuracy     IntAcc      ... 4.388
Radial Grid Type                 RadialGrid  ... OptM3 with GC (2021)
Angular Grid (max. ang.)         AngularGrid ... 4 (Lebedev-302)
Angular grid pruning method      GridPruning ... 4 (adaptive)
Weight generation scheme         WeightScheme... mBecke (2022)
Basis function cutoff            BFCut       ... 1.0000e-11
Integration weight cutoff        WCut        ... 1.0000e-14
Partially contracted basis set               ... off
Rotationally invariant grid construction     ... off
Angular grids for H and He will be reduced by one unit

Total number of grid points                  ...    28120
Total number of batches                      ...      442
Average number of points per batch           ...       63
Average number of grid points per atom       ...     4687

---------------------
SHARK GRID GENERATION
---------------------

General Integration Accuracy     IntAcc      ... 4.388
Radial Grid Type                 RadialGrid  ... OptM3 with GC (2021)
Angular Grid (max. ang.)         AngularGrid ... 4 (Lebedev-302)
Angular grid pruning method      GridPruning ... 4 (adaptive)
Weight generation scheme         WeightScheme... mBecke (2022)
Basis function cutoff            BFCut       ... 1.0000e-11
Integration weight cutoff        WCut        ... 1.0000e-14
Partially contracted basis set               ... off
Rotationally invariant grid construction     ... off
Angular grids for H and He will be reduced by one unit
Steep s-basis detected: some atoms will have their radial
                        grid points doubled.

Total number of grid points                  ...    46693
Total number of batches                      ...      733
Average number of points per batch           ...       63
Average number of grid points per atom       ...     7782

--------------------
COSX GRID GENERATION
--------------------

GRIDX 1
-------
General Integration Accuracy     IntAcc      ... 3.816
Radial Grid Type                 RadialGrid  ... OptM3 with GC (2021)
Angular Grid (max. ang.)         AngularGrid ... 1 (Lebedev-50)
Angular grid pruning method      GridPruning ... 4 (adaptive)
Weight generation scheme         WeightScheme... mBecke (2022)
Basis function cutoff            BFCut       ... 1.0000e-11
Integration weight cutoff        WCut        ... 1.0000e-14
Partially contracted basis set               ... on
Rotationally invariant grid construction     ... off
Angular grids for H and He will be reduced by one unit

Total number of grid points                  ...     3613
Total number of batches                      ...       32
Average number of points per batch           ...      112
Average number of grid points per atom       ...      602
UseSFitting                                  ... on

GRIDX 2
-------
General Integration Accuracy     IntAcc      ... 4.020
Radial Grid Type                 RadialGrid  ... OptM3 with GC (2021)
Angular Grid (max. ang.)         AngularGrid ... 2 (Lebedev-110)
Angular grid pruning method      GridPruning ... 4 (adaptive)
Weight generation scheme         WeightScheme... mBecke (2022)
Basis function cutoff            BFCut       ... 1.0000e-11
Integration weight cutoff        WCut        ... 1.0000e-14
Partially contracted basis set               ... on
Rotationally invariant grid construction     ... off
Angular grids for H and He will be reduced by one unit

Total number of grid points                  ...     7976
Total number of batches                      ...       66
Average number of points per batch           ...      120
Average number of grid points per atom       ...     1329
UseSFitting                                  ... on

GRIDX 3
-------
General Integration Accuracy     IntAcc      ... 4.338
Radial Grid Type                 RadialGrid  ... OptM3 with GC (2021)
Angular Grid (max. ang.)         AngularGrid ... 3 (Lebedev-194)
Angular grid pruning method      GridPruning ... 4 (adaptive)
Weight generation scheme         WeightScheme... mBecke (2022)
Basis function cutoff            BFCut       ... 1.0000e-11
Integration weight cutoff        WCut        ... 1.0000e-14
Partially contracted basis set               ... on
Rotationally invariant grid construction     ... off
Angular grids for H and He will be reduced by one unit

Total number of grid points                  ...    17627
Total number of batches                      ...      141
Average number of points per batch           ...      125
Average number of grid points per atom       ...     2938
UseSFitting                                  ... on
Initializing property integral containers    ... done (  0.0 sec)

SHARK setup successfully completed in   1.3 seconds

Maximum memory used throughout the entire STARTUP-calculation: 19.5 MB
-------------------------------------------------------------------------------
                                 ORCA GUESS
                   Start orbitals & Density for SCF / CASSCF
-------------------------------------------------------------------------------

------------
SCF SETTINGS
------------
Hamiltonian:
 Density Functional     Method          .... DFT(GTOs)
 Exchange Functional    Exchange        .... B88
   X-Alpha parameter    XAlpha          ....  0.666667
   Becke's b parameter  XBeta           ....  0.004200
 Correlation Functional Correlation     .... LYP
 LDA part of GGA corr.  LDAOpt          .... VWN-5
 Gradients option       PostSCFGGA      .... off
 Hybrid DFT is turned on
   Fraction HF Exchange ScalHFX         ....  0.200000
   Scaling of DF-GGA-X  ScalDFX         ....  0.720000
   Scaling of DF-GGA-C  ScalDFC         ....  0.810000
   Scaling of DF-LDA-C  ScalLDAC        ....  1.000000
   Perturbative correction              ....  0.000000
   NL short-range parameter             ....  4.800000
 RI-approximation to the Coulomb term is turned on
   Number of AuxJ basis functions       .... 180
   RIJ-COSX (HFX calculated with COS-X)).... on


General Settings:
 Integral files         IntName         .... opt
 Hartree-Fock type      HFTyp           .... RHF
 Total Charge           Charge          ....    0
 Multiplicity           Mult            ....    1
 Number of Electrons    NEL             ....   24
 Basis Dimension        Dim             ....   57
 Nuclear Repulsion      ENuc            ....     71.1025325113 Eh

Convergence Acceleration:
 AO-DIIS                CNVDIIS         .... on
   Start iteration      DIISMaxIt       ....    12
   Startup error        DIISStart       ....  0.200000
   # of expansion vecs  DIISMaxEq       ....     5
   Bias factor          DIISBfac        ....   1.050
   Max. coefficient     DIISMaxC        ....  10.000
 MO-DIIS                CNVKDIIS        .... off
 Trust-Rad. Augm. Hess. CNVTRAH         .... auto
   Auto Start mean grad. ratio tolernc. ....  1.125000
   Auto Start start iteration           ....    50
   Auto Start num. interpolation iter.  ....    10
   Max. Number of Micro iterations      ....    24
   Max. Number of Macro iterations      .... Maxiter - #DIIS iter
   Number of Davidson start vectors     ....     2
   Converg. threshold    (grad. norm)   ....   1.000e-05
   Grad. Scal. Fac. for Micro threshold ....   0.100
   Minimum threshold for Micro iter.    ....   1.000e-02
   NR start threshold (gradient norm)   ....   1.000e-04
   Initial trust radius                 ....   0.400
   Minimum AH scaling param. (alpha)    ....   1.000
   Maximum AH scaling param. (alpha)    .... 1000.000
   Quad. conv. algorithm                .... NR
   White noise on init. David. guess    .... on
   Maximum white noise                  ....   0.010
   Pseudo random numbers                .... off
   Inactive MOs                         .... canonical
   Orbital update algorithm             .... Taylor
   Preconditioner                       .... Diag
   Full preconditioner red. dimension   ....   250
 SOSCF                  CNVSOSCF        .... on
   Start iteration      SOSCFMaxIt      ....   150
   Startup grad/error   SOSCFStart      ....  0.003300
   Hessian update       SOSCFHessUp     .... L-BFGS
 Level Shifting         CNVShift        .... on
   Level shift para.    LevelShift      ....    0.2500
   Turn off err/grad.   ShiftErr        ....    0.0010
 Zerner damping         CNVZerner       .... off
 Static damping         CNVDamp         .... on
   Fraction old density DampFac         ....    0.7000
   Max. Damping (<1)    DampMax         ....    0.9800
   Min. Damping (>=0)   DampMin         ....    0.0000
   Turn off err/grad.   DampErr         ....    0.1000

SCF Procedure:
 Maximum # iterations   MaxIter         ....   125
 SCF integral mode      SCFMode         .... Direct
   Integral package                     .... SHARK and LIBINT hybrid scheme
 Reset frequency        DirectResetFreq ....    20
 Integral Threshold     Thresh          ....  2.500e-11 Eh
 Primitive CutOff       TCut            ....  2.500e-12 Eh

Convergence Tolerance:
 Convergence Check Mode ConvCheckMode   .... Total+1el-Energy
 Convergence forced     ConvForced      .... 0
 Energy Change          TolE            ....  1.000e-08 Eh
 1-El. energy change                    ....  1.000e-05 Eh
 Orbital Gradient       TolG            ....  1.000e-05
 Orbital Rotation angle TolX            ....  1.000e-05
 DIIS Error             TolErr          ....  5.000e-07

------------------------------
INITIAL GUESS: MODEL POTENTIAL
------------------------------
Loading Hartree-Fock densities                     ... done
Calculating cut-offs                               ... done
Initializing the effective Hamiltonian             ... done
Setting up the integral package (SHARK)            ... done
Starting the Coulomb interaction                   ... done (   0.0 sec)
Making the grid                                    ... done (   0.0 sec)
Mapping shells                                     ... done
Starting the XC term evaluation                    ... done (   0.0 sec)
  promolecular density results
     # of electrons  =     23.998992417
     EX              =    -20.787554697
     EC              =     -0.817174150
     EX+EC           =    -21.604728846
Transforming the Hamiltonian                       ... done (   0.0 sec)
Diagonalizing the Hamiltonian                      ... done (   0.0 sec)
Back transforming the eigenvectors                 ... done (   0.0 sec)
Now organizing SCF variables                       ... done
                      ------------------
                      INITIAL GUESS DONE (   0.1 sec)
                      ------------------
             **** ENERGY FILE WAS UPDATED (opt.en.tmp) ****
Finished Guess after   0.2 sec
Maximum memory used throughout the entire GUESS-calculation: 7.5 MB

-------------------------------------------------------------------------------------------
                                      ORCA LEAN-SCF
                              memory conserving SCF solver
-------------------------------------------------------------------------------------------

----------------------------------------D-I-I-S--------------------------------------------
Iteration    Energy (Eh)           Delta-E    RMSDP     MaxDP     DIISErr   Damp  Time(sec)
-------------------------------------------------------------------------------------------
               ***  Starting incremental Fock matrix formation  ***
    1    -169.6564408044480388     0.00e+00  7.84e-03  9.99e-02  2.80e-01  0.700   0.7
    2    -169.7341012199545958    -7.77e-02  4.90e-03  5.62e-02  1.12e-01  0.700   0.4
                               ***Turning on AO-DIIS***
    3    -169.7592866618429639    -2.52e-02  1.59e-03  1.74e-02  4.50e-02  0.700   0.4
    4    -169.7756953918562886    -1.64e-02  2.10e-03  1.99e-02  1.79e-02  0.000   0.4
    5    -169.8132808920432240    -3.76e-02  7.35e-04  7.53e-03  9.47e-03  0.000   0.4
                              *** Initializing SOSCF ***
---------------------------------------S-O-S-C-F--------------------------------------
Iteration    Energy (Eh)           Delta-E    RMSDP     MaxDP     MaxGrad    Time(sec)
--------------------------------------------------------------------------------------
    6    -169.8135315342013314    -2.51e-04  2.47e-04  2.63e-03  1.89e-03     0.3
               *** Restarting incremental Fock matrix formation ***
    7    -169.8135408074584234    -9.27e-06  2.22e-04  2.24e-03  6.12e-04     0.6
    8    -169.8135427899595697    -1.98e-06  7.12e-05  8.74e-04  4.66e-04     1.0
    9    -169.8135436723440534    -8.82e-07  5.40e-05  5.58e-04  2.78e-04     0.5
   10    -169.8135440159842346    -3.44e-07  1.93e-05  2.77e-04  1.58e-04     0.5
   11    -169.8135442709825043    -2.55e-07  1.10e-05  1.24e-04  3.24e-05     0.5
   12    -169.8135442841505665    -1.32e-08  3.01e-06  4.91e-05  2.30e-05     0.5
   13    -169.8135442861462252    -2.00e-09  2.15e-06  2.28e-05  1.21e-05     0.4
                 **** Energy Check signals convergence ****

               *****************************************************
               *                     SUCCESS                       *
               *           SCF CONVERGED AFTER  13 CYCLES          *
               *****************************************************

Recomputing exchange energy using gridx3       ... done (    0.750 sec)
Old exchange energy                            :     -4.217531353 Eh
New exchange energy                            :     -4.217518631 Eh
Exchange energy change after final integration :      0.000012721 Eh
Total energy after final integration           :   -169.813531565 Eh
             **** ENERGY FILE WAS UPDATED (opt.en.tmp) ****

----------------
TOTAL SCF ENERGY
----------------

Total Energy       :       -169.81353156490218 Eh           -4620.86111 eV

Components:
Nuclear Repulsion  :         71.10253251133379 Eh            1934.79827 eV
Electronic Energy  :       -240.91607679748003 Eh           -6555.65973 eV
One Electron Energy:       -371.82278171502497 Eh          -10117.81227 eV
Two Electron Energy:        130.90670491754494 Eh            3562.15254 eV

Virial components:
Potential Energy   :       -338.65978359621232 Eh           -9215.40121 eV
Kinetic Energy     :        168.84625203131014 Eh            4594.54010 eV
Virial Ratio       :          2.00572875928222

DFT components:
N(Alpha)           :       12.000000163867 electrons
N(Beta)            :       12.000000163867 electrons
N(Total)           :       24.000000327734 electrons
E(X)               :      -16.786147994210 Eh       
E(C)               :       -0.970400918676 Eh       
E(XC)              :      -17.756548912885 Eh       

---------------
SCF CONVERGENCE
---------------

  Last Energy change         ...    1.9957e-09  Tolerance :   1.0000e-08
  Last MAX-Density change    ...    2.2842e-05  Tolerance :   1.0000e-07
  Last RMS-Density change    ...    2.1510e-06  Tolerance :   5.0000e-09
  Last DIIS Error            ...    1.8909e-03  Tolerance :   5.0000e-07
  Last Orbital Gradient      ...    1.2078e-05  Tolerance :   1.0000e-05
  Last Orbital Rotation      ...    1.5442e-05  Tolerance :   1.0000e-05


----------------
ORBITAL ENERGIES
----------------

  NO   OCC          E(Eh)            E(eV) 
   0   2.0000     -19.102021      -519.7924 
   1   2.0000     -14.354544      -390.6070 
   2   2.0000     -10.283243      -279.8213 
   3   2.0000      -1.026509       -27.9327 
   4   2.0000      -0.903474       -24.5848 
   5   2.0000      -0.622247       -16.9322 
   6   2.0000      -0.551890       -15.0177 
   7   2.0000      -0.474481       -12.9113 
   8   2.0000      -0.404876       -11.0172 
   9   2.0000      -0.397545       -10.8178 
  10   2.0000      -0.267241        -7.2720 
  11   2.0000      -0.249407        -6.7867 
  12   0.0000       0.029931         0.8145 
  13   0.0000       0.052206         1.4206 
  14   0.0000       0.082627         2.2484 
  15   0.0000       0.134275         3.6538 
  16   0.0000       0.251201         6.8355 
  17   0.0000       0.338870         9.2211 
  18   0.0000       0.465576        12.6690 
  19   0.0000       0.475320        12.9341 
  20   0.0000       0.495661        13.4876 
  21   0.0000       0.518087        14.0979 
  22   0.0000       0.640201        17.4207 
*Only the first 10 virtual orbitals were printed.

                    ********************************
                    * MULLIKEN POPULATION ANALYSIS *
                    ********************************

-----------------------
MULLIKEN ATOMIC CHARGES
-----------------------
   0 C :    0.170347
   1 O :   -0.265859
   2 N :   -0.082140
   3 H :   -0.016375
   4 H :    0.100187
   5 H :    0.093841
Sum of atomic charges:    0.0000000

--------------------------------
MULLIKEN REDUCED ORBITAL CHARGES
--------------------------------
  0 C s       :     3.029296  s :     3.029296
      pz      :     0.847221  p :     2.615380
      px      :     0.864432
      py      :     0.903727
      dz2     :     0.016779  d :     0.184978
      dxz     :     0.036421
      dyz     :     0.021765
      dx2y2   :     0.062177
      dxy     :     0.047836

  1 O s       :     3.745260  s :     3.745260
      pz      :     1.405342  p :     4.502573
      px      :     1.662060
      py      :     1.435171
      dz2     :     0.002697  d :     0.018026
      dxz     :     0.002432
      dyz     :     0.004152
      dx2y2   :     0.003706
      dxy     :     0.005039

  2 N s       :     3.308636  s :     3.308636
      pz      :     1.540265  p :     3.755048
      px      :     1.058992
      py      :     1.155791
      dz2     :     0.001077  d :     0.018456
      dxz     :     0.004271
      dyz     :     0.001014
      dx2y2   :     0.004656
      dxy     :     0.007437

  3 H s       :     0.990438  s :     0.990438
      pz      :     0.006385  p :     0.025938
      px      :     0.006284
      py      :     0.013269

  4 H s       :     0.845457  s :     0.845457
      pz      :     0.016499  p :     0.054356
      px      :     0.013822
      py      :     0.024035

  5 H s       :     0.850170  s :     0.850170
      pz      :     0.017646  p :     0.055989
      px      :     0.014394
      py      :     0.023949



                     *******************************
                     * LOEWDIN POPULATION ANALYSIS *
                     *******************************

----------------------
LOEWDIN ATOMIC CHARGES
----------------------
   0 C :   -0.105721
   1 O :   -0.083230
   2 N :    0.086215
   3 H :   -0.010851
   4 H :    0.057204
   5 H :    0.056384

-------------------------------
LOEWDIN REDUCED ORBITAL CHARGES
-------------------------------
  0 C s       :     2.843876  s :     2.843876
      pz      :     0.860203  p :     2.794203
      px      :     0.957436
      py      :     0.976564
      dz2     :     0.040573  d :     0.467643
      dxz     :     0.089392
      dyz     :     0.056685
      dx2y2   :     0.165468
      dxy     :     0.115524

  1 O s       :     3.503292  s :     3.503292
      pz      :     1.404517  p :     4.548972
      px      :     1.651501
      py      :     1.492953
      dz2     :     0.003751  d :     0.030967
      dxz     :     0.003958
      dyz     :     0.007357
      dx2y2   :     0.006086
      dxy     :     0.009816

  2 N s       :     2.996668  s :     2.996668
      pz      :     1.478350  p :     3.852618
      px      :     1.149679
      py      :     1.224589
      dz2     :     0.003977  d :     0.064500
      dxz     :     0.012078
      dyz     :     0.005004
      dx2y2   :     0.017764
      dxy     :     0.025678

  3 H s       :     0.934477  s :     0.934477
      pz      :     0.019046  p :     0.076374
      px      :     0.018459
      py      :     0.038869

  4 H s       :     0.802387  s :     0.802387
      pz      :     0.048601  p :     0.140409
      px      :     0.033172
      py      :     0.058636

  5 H s       :     0.801712  s :     0.801712
      pz      :     0.050111  p :     0.141904
      px      :     0.033764
      py      :     0.058029



                      *****************************
                      * MAYER POPULATION ANALYSIS *
                      *****************************

  NA   - Mulliken gross atomic population
  ZA   - Total nuclear charge
  QA   - Mulliken gross atomic charge
  VA   - Mayer's total valence
  BVA  - Mayer's bonded valence
  FA   - Mayer's free valence

  ATOM       NA         ZA         QA         VA         BVA        FA
  0 C      5.8297     6.0000     0.1703     4.3650     4.3650     0.0000
  1 O      8.2659     8.0000    -0.2659     2.3118     2.3118    -0.0000
  2 N      7.0821     7.0000    -0.0821     3.3163     3.3163    -0.0000
  3 H      1.0164     1.0000    -0.0164     0.9692     0.9692    -0.0000
  4 H      0.8998     1.0000     0.1002     1.0307     1.0307    -0.0000
  5 H      0.9062     1.0000     0.0938     1.0145     1.0145     0.0000

  Mayer bond orders larger than 0.100000
B(  0-C ,  1-O ) :   2.1164 B(  0-C ,  2-N ) :   1.2912 B(  0-C ,  3-H ) :   0.9159 
B(  1-O ,  2-N ) :   0.1067 B(  2-N ,  4-H ) :   0.9603 B(  2-N ,  5-H ) :   0.9673 


-------
TIMINGS
-------

Total SCF time: 0 days 0 hours 0 min 7 sec 

Total time                  ....       7.305 sec
Sum of individual times     ....       7.266 sec  ( 99.5%)

SCF preparation             ....       0.101 sec  (  1.4%)
Fock matrix formation       ....       7.087 sec  ( 97.0%)
  Startup                   ....       0.002 sec  (  0.0% of F)
  Split-RI-J                ....       0.423 sec  (  6.0% of F)
  Chain of spheres X        ....       4.669 sec  ( 65.9% of F)
  XC integration            ....       1.929 sec  ( 27.2% of F)
    XC Preparation          ....       0.000 sec  (  0.0% of XC)
    Basis function eval.    ....       0.890 sec  ( 46.1% of XC)
    Density eval.           ....       0.280 sec  ( 14.5% of XC)
    XC-Functional eval.     ....       0.304 sec  ( 15.8% of XC)
    XC-Potential eval.      ....       0.299 sec  ( 15.5% of XC)
Diagonalization             ....       0.000 sec  (  0.0%)
Density matrix formation    ....       0.018 sec  (  0.2%)
Total Energy calculation    ....       0.002 sec  (  0.0%)
Population analysis         ....       0.005 sec  (  0.1%)
Orbital Transformation      ....       0.025 sec  (  0.3%)
Orbital Orthonormalization  ....       0.000 sec  (  0.0%)
DIIS solution               ....       0.023 sec  (  0.3%)
SOSCF solution              ....       0.006 sec  (  0.1%)
Finished LeanSCF after   7.3 sec

Maximum memory used throughout the entire LEANSCF-calculation: 8.1 MB

------------------------------------------------------------------------------
                         ORCA PROPERTY INTEGRAL CALCULATIONS
------------------------------------------------------------------------------

GBWName                                   ... opt.gbw
Number of atoms                           ...      6
Number of basis functions                 ...     75
Max core memory                           ...   1024 MB

Dipole integrals                          ... YES
Quadrupole integrals                      ...  NO
Linear momentum integrals                 ...  NO
Angular momentum integrals                ...  NO
Higher moments length integrals           ...  NO
Higher moments velocity integrals         ...  NO
Kinetic energy integrals                  ...  NO
GIAO right hand sides                     ...  NO
GIAO dipole derivative integrals          ...  NO
SOC integrals                             ...  NO
EPR diamagnetic integrals (GIAO)          ...  NO
EPR gauge integrals                       ...  NO
Field gradient integrals                  ...  NO (   0 nuclei)
Spin-dipole/Fermi contact integrals       ...  NO (   0 nuclei)
Contact density integrals                 ...  NO (   0 nuclei)
Nucleus-orbit integrals                   ...  NO (   0 nuclei)
Geometric perturbations                   ...  NO (   6 nuclei)

Choice of electric origin   ... Center of mass
Position of electric origin ... (  2.3877, -0.7914, -0.2778) 
Choice of magnetic origin   ... GIAO
Position of magnetic origin ... (  0.0000,  0.0000,  0.0000) 

Calculating integrals                     ... Electric Dipole (Length)     done (  0.0 sec)

Property integrals calculated in   0.0 sec

Maximum memory used throughout the entire PROPINT-calculation: 6.8 MB

-------------------------   --------------------
FINAL SINGLE POINT ENERGY      -169.813531564902
-------------------------   --------------------

------------------------------------------------------------------------------
                         ORCA SCF GRADIENT CALCULATION
------------------------------------------------------------------------------

Nuc. rep. gradient        (SHARK) ... done (  0.0 sec)
HCore & Overlap gradient  (SHARK) ... done (  0.0 sec)
Split-RIJ-J gradient      (SHARK) ... done (  0.2 sec)
COSX-gradient                     ... done (  3.9 sec)
XC gradient                       ... done (  1.0 sec)

------------------
CARTESIAN GRADIENT
------------------

   1   C   :    0.000011962    0.017186950    0.008998856
   2   O   :    0.000000542   -0.006882973   -0.003601879
   3   N   :   -0.001602840   -0.002758831   -0.001445697
   4   H   :    0.003557068   -0.007537142   -0.003949076
   5   H   :   -0.001791148    0.001838206    0.000971472
   6   H   :   -0.000175583   -0.001846210   -0.000973675

Difference to translation invariance:
           :   -0.0000000001   -0.0000000001   -0.0000000001

Difference to rotation invariance:
           :   -0.0000303428    0.0000075928   -0.0000199885

Norm of the Cartesian gradient     ...    0.0233658884
RMS gradient                       ...    0.0055073927
MAX gradient                       ...    0.0171869505

-------
TIMINGS
-------

Total SCF gradient time     ....        5.179 sec

Densities                   ....       0.000 sec  (  0.0%)
One electron gradient       ....       0.038 sec  (  0.7%)
RI-J Coulomb gradient       ....       0.241 sec  (  4.7%)
COSX gradient               ....       3.872 sec  ( 74.8%)
XC gradient                 ....       1.027 sec  ( 19.8%)

Maximum memory used throughout the entire SCFGRAD-calculation: 9.8 MB
------------------------------------------------------------------------------
                         ORCA GEOMETRY RELAXATION STEP
------------------------------------------------------------------------------

Reading the OPT-File                    .... done
Getting information on internals        .... done
Copying old internal coords+grads       .... done
Making the new internal coordinates     .... (2022 redundants) done
Validating the new internal coordinates .... (2022 redundants) done
Calculating the B-matrix                .... done
Calculating the G,G- and P matrices     .... done
Transforming gradient to internals      .... done
Projecting the internal gradient        .... done
Number of atoms                         ....   6
Number of internal coordinates          ....  15
Current Energy                          ....  -169.813531565 Eh
Current gradient norm                   ....     0.023365888 Eh/bohr
Maximum allowed component of the step   ....  0.300
Current trust radius                    ....  0.300
Evaluating the initial hessian          ....  (Almloef) done
Projecting the Hessian                  .... done
Forming the augmented Hessian           .... done
Diagonalizing the augmented Hessian     .... done
Last element of RFO vector              ....  0.999397424
Lowest eigenvalues of augmented Hessian:
 -0.000489606  0.032005265  0.032005265  0.032005266  0.321772556
Length of the computed step             ....  0.034730985
The final length of the internal step   ....  0.034730985
Converting the step to Cartesian space:
 Initial RMS(Int)=    0.0089675017
Transforming coordinates:
 Iter   0:  RMS(Cart)=    0.0085297312 RMS(Int)=    1.6223299442
done
Storing new coordinates                 .... done

                                .--------------------.
          ----------------------|Geometry convergence|-------------------------
          Item                value                   Tolerance       Converged
          ---------------------------------------------------------------------
          RMS gradient        0.0038318209            0.0001000000      NO
          MAX gradient        0.0092089948            0.0003000000      NO
          RMS step            0.0089675017            0.0020000000      NO
          MAX step            0.0266751785            0.0040000000      NO
          ........................................................
          Max(Bonds)      0.0141      Max(Angles)    0.85
          Max(Dihed)        0.01      Max(Improp)    0.00
          ---------------------------------------------------------------------

The optimization has not yet converged - more geometry cycles are needed


    ---------------------------------------------------------------------------
                         Redundant Internal Coordinates
                            (Angstroem and degrees)

        Definition                    Value    dE/dq     Step     New-Value
    ----------------------------------------------------------------------------
     1. B(O   1,C   0)                1.2209  0.006695 -0.0034    1.2175   
     2. B(N   2,C   0)                1.3586 -0.003715  0.0031    1.3617   
     3. B(H   3,C   0)                1.1019 -0.009209  0.0141    1.1160   
     4. B(H   4,N   2)                1.0116 -0.002703  0.0033    1.0150   
     5. B(H   5,N   2)                1.0098 -0.001895  0.0023    1.0121   
     6. A(N   2,C   0,H   3)          113.14  0.003746   -0.52    112.61   
     7. A(O   1,C   0,N   2)          123.21 -0.006421    0.85    124.06   
     8. A(O   1,C   0,H   3)          123.65  0.002675   -0.32    123.33   
     9. A(H   4,N   2,H   5)          119.23 -0.000264    0.05    119.28   
    10. A(C   0,N   2,H   5)          122.74  0.001434   -0.23    122.51   
    11. A(C   0,N   2,H   4)          118.03 -0.001170    0.18    118.22   
    12. D(H   4,N   2,C   0,H   3)   -180.00 -0.000004    0.01   -179.99   
    13. D(H   5,N   2,C   0,O   1)    180.00 -0.000001    0.00    180.00   
    14. D(H   5,N   2,C   0,H   3)      0.00 -0.000003    0.01      0.01   
    15. D(H   4,N   2,C   0,O   1)     -0.00 -0.000002    0.00      0.00   
    ----------------------------------------------------------------------------

Geometry step timings:
Preparation and reading OPT file:      0.000 s ( 1.317 %)
Internal coordinates            :      0.000 s ( 0.324 %)
B/P matrices and projection     :      0.000 s ( 1.857 %)
Hessian update/contruction      :      0.000 s ( 1.715 %)
Making the step                 :      0.000 s ( 1.114 %)
Converting the step to Cartesian:      0.000 s ( 0.574 %)
Storing new data                :      0.000 s ( 0.344 %)
Checking convergence            :      0.000 s ( 0.027 %)
Final printing                  :      0.014 s (92.472 %)
Total time                      :      0.015 s

Time for energy+gradient        :     14.492 s
Time for complete geometry iter :     14.597 s

         *************************************************************
         *                GEOMETRY OPTIMIZATION CYCLE   2            *
         *************************************************************
---------------------------------
CARTESIAN COORDINATES (ANGSTROEM)
---------------------------------
  C      0.988591   -0.135200    0.001580
  O      0.359985   -1.058848   -0.482202
  N      2.348472   -0.072594    0.034356
  H      0.506592    0.756459    0.468527
  H      2.874108   -0.841699   -0.368537
  H      2.847341    0.707452    0.442946

----------------------------
CARTESIAN COORDINATES (A.U.)
----------------------------
  NO LB      ZA    FRAG     MASS         X           Y           Z
   0 C     6.0000    0    12.011    1.868167   -0.255492    0.002986
   1 O     8.0000    0    15.999    0.680273   -2.000934   -0.911229
   2 N     7.0000    0    14.007    4.437969   -0.137182    0.064923
   3 H     1.0000    0     1.008    0.957321    1.429501    0.885388
   4 H     1.0000    0     1.008    5.431278   -1.590581   -0.696434
   5 H     1.0000    0     1.008    5.380695    1.336891    0.837046

--------------------------------
INTERNAL COORDINATES (ANGSTROEM)
--------------------------------
 C      0   0   0     0.000000000000     0.00000000     0.00000000
 O      1   0   0     1.217504211356     0.00000000     0.00000000
 N      1   2   0     1.361715471644   124.05962313     0.00000000
 H      1   2   3     1.115983865120   123.32659143   179.99493790
 H      3   1   2     1.014957748428   118.21608244     0.00000000
 H      3   1   2     1.012071182110   122.50736183   180.00132031

---------------------------
INTERNAL COORDINATES (A.U.)
---------------------------
 C      0   0   0     0.000000000000     0.00000000     0.00000000
 O      1   0   0     2.300749526358     0.00000000     0.00000000
 N      1   2   0     2.573269313730   124.05962313     0.00000000
 H      1   2   3     2.108903874953   123.32659143   179.99493790
 H      3   1   2     1.917992182031   118.21608244     0.00000000
 H      3   1   2     1.912537362223   122.50736183   180.00132031

------------------------------------------------------------------------------
                   ___                                                        
                  /   \      - P O W E R E D   B Y -                         
                 /     \                                                     
                 |  |  |   _    _      __       _____    __    __             
                 |  |  |  | |  | |    /  \     |  _  \  |  |  /  |          
                  \  \/   | |  | |   /    \    | | | |  |  | /  /          
                 / \  \   | |__| |  /  /\  \   | |_| |  |  |/  /          
                |  |  |   |  __  | /  /__\  \  |    /   |      \           
                |  |  |   | |  | | |   __   |  |    \   |  |\   \          
                \     /   | |  | | |  |  |  |  | |\  \  |  | \   \       
                 \___/    |_|  |_| |__|  |__|  |_| \__\ |__|  \__/        
                                                                              
                      - O R C A' S   B I G   F R I E N D -                    
                                      &                                       
                       - I N T E G R A L  F E E D E R -                       
                                                                              
 v1 FN, 2020, v2 2021, v3 2022-2024                                           
------------------------------------------------------------------------------


----------------------
SHARK INTEGRAL PACKAGE
----------------------

Number of atoms                             ...      6
Number of basis functions                   ...     75
Number of shells                            ...     45
Maximum angular momentum                    ...      2
Integral batch strategy                     ... SHARK/LIBINT Hybrid
RI-J (if used) integral strategy            ... SPLIT-RIJ (Revised 2003 algorithm where possible)
Printlevel                                  ...      1
Contraction scheme used                     ... PARTIAL GENERAL contraction
Prescreening option                         ... SCHWARTZ
   Thresh                                   ... 2.500e-11
   Tcut                                     ... 2.500e-12
   Tpresel                                  ... 2.500e-12 
Coulomb Range Separation                    ... NOT USED
Exchange Range Separation                   ... NOT USED
Multipole approximations                    ... NOT USED
Finite Nucleus Model                        ... NOT USED
CABS basis                                  ... NOT available
Auxiliary Coulomb fitting basis             ... AVAILABLE
   # of basis functions in Aux-J            ...    180
   # of shells in Aux-J                     ...     60
   Maximum angular momentum in Aux-J        ...      4
Auxiliary J/K fitting basis                 ... NOT available
Auxiliary Correlation fitting basis         ... NOT available
Auxiliary 'external' fitting basis          ... NOT available

Checking pre-screening integrals            ... done (  0.0 sec) Dimension = 45
Save PGC pre-screening integrals            ... done (  0.0 sec) Dimension = 45
Calculate PGC overlap integrals             ... done (  0.0 sec) Dimension = 27
Calculating pre-screening integrals (ORCA)  ... done (  0.1 sec) Dimension = 27
Check shell pair data                       ... done (  0.0 sec)
Shell pair information
Shell pair cut-off parameter TPreSel        ...   2.5e-12
Total number of shell pairs                 ...      1035
Shell pairs after pre-screening             ...       909
Total number of primitive shell pairs       ...      1671
Primitive shell pairs kept                  ...      1393
          la=0 lb=0:    437 shell pairs
          la=1 lb=0:    295 shell pairs
          la=1 lb=1:     45 shell pairs
          la=2 lb=0:     99 shell pairs
          la=2 lb=1:     27 shell pairs
          la=2 lb=2:      6 shell pairs

Calculating one electron integrals          ... done (  0.0 sec)
Calculating RI/J V-Matrix + Cholesky decomp.... done (  0.0 sec)
Calculating Nuclear repulsion               ... done (  0.0 sec) ENN=     70.977816529808 Eh

Diagonalization of the overlap matrix:
Smallest eigenvalue                        ... 7.950e-03
Time for diagonalization                   ...    0.001 sec
Threshold for overlap eigenvalues          ... 1.000e-07
Number of eigenvalues below threshold      ... 0
Time for construction of square roots      ...    0.000 sec
Total time needed                          ...    0.002 sec

-------------------
DFT GRID GENERATION
-------------------

General Integration Accuracy     IntAcc      ... 4.388
Radial Grid Type                 RadialGrid  ... OptM3 with GC (2021)
Angular Grid (max. ang.)         AngularGrid ... 4 (Lebedev-302)
Angular grid pruning method      GridPruning ... 4 (adaptive)
Weight generation scheme         WeightScheme... mBecke (2022)
Basis function cutoff            BFCut       ... 1.0000e-11
Integration weight cutoff        WCut        ... 1.0000e-14
Partially contracted basis set               ... off
Rotationally invariant grid construction     ... off
Angular grids for H and He will be reduced by one unit

Total number of grid points                  ...    28122
Total number of batches                      ...      442
Average number of points per batch           ...       63
Average number of grid points per atom       ...     4687

---------------------
SHARK GRID GENERATION
---------------------

General Integration Accuracy     IntAcc      ... 4.388
Radial Grid Type                 RadialGrid  ... OptM3 with GC (2021)
Angular Grid (max. ang.)         AngularGrid ... 4 (Lebedev-302)
Angular grid pruning method      GridPruning ... 4 (adaptive)
Weight generation scheme         WeightScheme... mBecke (2022)
Basis function cutoff            BFCut       ... 1.0000e-11
Integration weight cutoff        WCut        ... 1.0000e-14
Partially contracted basis set               ... off
Rotationally invariant grid construction     ... off
Angular grids for H and He will be reduced by one unit
Steep s-basis detected: some atoms will have their radial
                        grid points doubled.

Total number of grid points                  ...    46699
Total number of batches                      ...      733
Average number of points per batch           ...       63
Average number of grid points per atom       ...     7783

--------------------
COSX GRID GENERATION
--------------------

GRIDX 1
-------
General Integration Accuracy     IntAcc      ... 3.816
Radial Grid Type                 RadialGrid  ... OptM3 with GC (2021)
Angular Grid (max. ang.)         AngularGrid ... 1 (Lebedev-50)
Angular grid pruning method      GridPruning ... 4 (adaptive)
Weight generation scheme         WeightScheme... mBecke (2022)
Basis function cutoff            BFCut       ... 1.0000e-11
Integration weight cutoff        WCut        ... 1.0000e-14
Partially contracted basis set               ... on
Rotationally invariant grid construction     ... off
Angular grids for H and He will be reduced by one unit

Total number of grid points                  ...     3614
Total number of batches                      ...       32
Average number of points per batch           ...      112
Average number of grid points per atom       ...      602
UseSFitting                                  ... on

GRIDX 2
-------
General Integration Accuracy     IntAcc      ... 4.020
Radial Grid Type                 RadialGrid  ... OptM3 with GC (2021)
Angular Grid (max. ang.)         AngularGrid ... 2 (Lebedev-110)
Angular grid pruning method      GridPruning ... 4 (adaptive)
Weight generation scheme         WeightScheme... mBecke (2022)
Basis function cutoff            BFCut       ... 1.0000e-11
Integration weight cutoff        WCut        ... 1.0000e-14
Partially contracted basis set               ... on
Rotationally invariant grid construction     ... off
Angular grids for H and He will be reduced by one unit

Total number of grid points                  ...     7978
Total number of batches                      ...       65
Average number of points per batch           ...      122
Average number of grid points per atom       ...     1330
UseSFitting                                  ... on

GRIDX 3
-------
General Integration Accuracy     IntAcc      ... 4.338
Radial Grid Type                 RadialGrid  ... OptM3 with GC (2021)
Angular Grid (max. ang.)         AngularGrid ... 3 (Lebedev-194)
Angular grid pruning method      GridPruning ... 4 (adaptive)
Weight generation scheme         WeightScheme... mBecke (2022)
Basis function cutoff            BFCut       ... 1.0000e-11
Integration weight cutoff        WCut        ... 1.0000e-14
Partially contracted basis set               ... on
Rotationally invariant grid construction     ... off
Angular grids for H and He will be reduced by one unit

Total number of grid points                  ...    17636
Total number of batches                      ...      141
Average number of points per batch           ...      125
Average number of grid points per atom       ...     2939
UseSFitting                                  ... on
Initializing property integral containers    ... done (  0.0 sec)

SHARK setup successfully completed in   1.2 seconds

Maximum memory used throughout the entire STARTUP-calculation: 19.5 MB
Occupation numbers will be reassigned to an Aufbau configuration
             **** ENERGY FILE WAS UPDATED (opt.en.tmp) ****
Finished Guess after   0.1 sec
Maximum memory used throughout the entire GUESS-calculation: 6.7 MB
----------------------------------------D-I-I-S--------------------------------------------
Iteration    Energy (Eh)           Delta-E    RMSDP     MaxDP     DIISErr   Damp  Time(sec)
-------------------------------------------------------------------------------------------
               ***  Starting incremental Fock matrix formation  ***
    1    -169.8137290708440901     0.00e+00  1.40e-04  1.27e-03  3.72e-03  0.700   0.6
                              *** Initializing SOSCF ***
---------------------------------------S-O-S-C-F--------------------------------------
Iteration    Energy (Eh)           Delta-E    RMSDP     MaxDP     MaxGrad    Time(sec)
--------------------------------------------------------------------------------------
    2    -169.8137650766999514    -3.60e-05  4.04e-04  3.63e-03  2.80e-03     0.4
               *** Restarting incremental Fock matrix formation ***
    3    -169.8138546156224606    -8.95e-05  1.39e-04  1.72e-03  4.25e-04     0.6
    4    -169.8138499885648116     4.63e-06  9.20e-05  1.36e-03  1.05e-03     0.5
    5    -169.8138576161813660    -7.63e-06  1.64e-05  1.86e-04  6.00e-05     0.5
    6    -169.8138575944729780     2.17e-08  8.25e-06  1.08e-04  8.84e-05     0.5
    7    -169.8138576702432658    -7.58e-08  2.29e-06  2.58e-05  1.19e-05     0.5
    8    -169.8138576725151552    -2.27e-09  1.20e-06  1.22e-05  1.05e-05     0.4
                 **** Energy Check signals convergence ****

               *****************************************************
               *                     SUCCESS                       *
               *           SCF CONVERGED AFTER   8 CYCLES          *
               *****************************************************

Recomputing exchange energy using gridx3       ... done (    0.728 sec)
Old exchange energy                            :     -4.216023824 Eh
New exchange energy                            :     -4.216010129 Eh
Exchange energy change after final integration :      0.000013694 Eh
Total energy after final integration           :   -169.813843978 Eh
             **** ENERGY FILE WAS UPDATED (opt.en.tmp) ****

----------------
TOTAL SCF ENERGY
----------------

Total Energy       :       -169.81384397815597 Eh           -4620.86962 eV

Components:
Nuclear Repulsion  :         70.97781652980768 Eh            1931.40458 eV
Electronic Energy  :       -240.79167420232284 Eh           -6552.27457 eV
One Electron Energy:       -371.57162443914649 Eh          -10110.97793 eV
Two Electron Energy:        130.77995023682365 Eh            3558.70337 eV

Virial components:
Potential Energy   :       -338.63368720091353 Eh           -9214.69109 eV
Kinetic Energy     :        168.81984322275758 Eh            4593.82148 eV
Virial Ratio       :          2.00588793791312

DFT components:
N(Alpha)           :       12.000000263372 electrons
N(Beta)            :       12.000000263372 electrons
N(Total)           :       24.000000526744 electrons
E(X)               :      -16.780832448890 Eh       
E(C)               :       -0.970063828708 Eh       
E(XC)              :      -17.750896277597 Eh       

---------------
SCF CONVERGENCE
---------------

  Last Energy change         ...    2.2719e-09  Tolerance :   1.0000e-08
  Last MAX-Density change    ...    1.2203e-05  Tolerance :   1.0000e-07
  Last RMS-Density change    ...    1.2038e-06  Tolerance :   5.0000e-09
  Last DIIS Error            ...    2.7969e-03  Tolerance :   5.0000e-07
  Last Orbital Gradient      ...    1.0466e-05  Tolerance :   1.0000e-05
  Last Orbital Rotation      ...    5.1794e-06  Tolerance :   1.0000e-05


Total SCF time: 0 days 0 hours 0 min 4 sec 
Finished LeanSCF after   4.8 sec

Maximum memory used throughout the entire LEANSCF-calculation: 8.2 MB

------------------------------------------------------------------------------
                         ORCA PROPERTY INTEGRAL CALCULATIONS
------------------------------------------------------------------------------

GBWName                                   ... opt.gbw
Number of atoms                           ...      6
Number of basis functions                 ...     75
Max core memory                           ...   1024 MB

Dipole integrals                          ... YES
Quadrupole integrals                      ...  NO
Linear momentum integrals                 ...  NO
Angular momentum integrals                ...  NO
Higher moments length integrals           ...  NO
Higher moments velocity integrals         ...  NO
Kinetic energy integrals                  ...  NO
GIAO right hand sides                     ...  NO
GIAO dipole derivative integrals          ...  NO
SOC integrals                             ...  NO
EPR diamagnetic integrals (GIAO)          ...  NO
EPR gauge integrals                       ...  NO
Field gradient integrals                  ...  NO (   0 nuclei)
Spin-dipole/Fermi contact integrals       ...  NO (   0 nuclei)
Contact density integrals                 ...  NO (   0 nuclei)
Nucleus-orbit integrals                   ...  NO (   0 nuclei)
Geometric perturbations                   ...  NO (   6 nuclei)

Choice of electric origin   ... Center of mass
Position of electric origin ... (  2.3833, -0.7952, -0.2797) 
Choice of magnetic origin   ... GIAO
Position of magnetic origin ... (  0.0000,  0.0000,  0.0000) 

Calculating integrals                     ... Electric Dipole (Length)     done (  0.0 sec)

Property integrals calculated in   0.0 sec

Maximum memory used throughout the entire PROPINT-calculation: 6.8 MB

-------------------------   --------------------
FINAL SINGLE POINT ENERGY      -169.813843978156
-------------------------   --------------------

------------------------------------------------------------------------------
                         ORCA SCF GRADIENT CALCULATION
------------------------------------------------------------------------------

Nuc. rep. gradient        (SHARK) ... done (  0.0 sec)
HCore & Overlap gradient  (SHARK) ... done (  0.0 sec)
Split-RIJ-J gradient      (SHARK) ... done (  0.2 sec)
COSX-gradient                     ... done (  3.6 sec)
XC gradient                       ... done (  0.8 sec)

------------------
CARTESIAN GRADIENT
------------------

   1   C   :    0.001016700    0.005836883    0.003061315
   2   O   :   -0.000341461   -0.003565902   -0.001865400
   3   N   :   -0.000983469   -0.000587347   -0.000309381
   4   H   :   -0.000189379   -0.001189958   -0.000629220
   5   H   :   -0.000387257   -0.000372284   -0.000188284
   6   H   :    0.000884866   -0.000121392   -0.000069030

Difference to translation invariance:
           :   -0.0000000001   -0.0000000001   -0.0000000001

Difference to rotation invariance:
           :   -0.0000321696    0.0000124058   -0.0000290760

Norm of the Cartesian gradient     ...    0.0080727129
RMS gradient                       ...    0.0019027567
MAX gradient                       ...    0.0058368830

-------
TIMINGS
-------

Total SCF gradient time     ....        4.722 sec

Densities                   ....       0.000 sec  (  0.0%)
One electron gradient       ....       0.034 sec  (  0.7%)
RI-J Coulomb gradient       ....       0.198 sec  (  4.2%)
COSX gradient               ....       3.641 sec  ( 77.1%)
XC gradient                 ....       0.849 sec  ( 18.0%)

Maximum memory used throughout the entire SCFGRAD-calculation: 9.8 MB
------------------------------------------------------------------------------
                         ORCA GEOMETRY RELAXATION STEP
------------------------------------------------------------------------------

Reading the OPT-File                    .... done
Getting information on internals        .... done
Copying old internal coords+grads       .... done
Making the new internal coordinates     .... (2022 redundants) done
Validating the new internal coordinates .... (2022 redundants) done
Calculating the B-matrix                .... done
Calculating the G,G- and P matrices     .... done
Transforming gradient to internals      .... done
Projecting the internal gradient        .... done
Number of atoms                         ....   6
Number of internal coordinates          ....  15
Current Energy                          ....  -169.813843978 Eh
Current gradient norm                   ....     0.008072713 Eh/bohr
Maximum allowed component of the step   ....  0.300
Current trust radius                    ....  0.300
Updating the Hessian (BFGS)             .... done
Forming the augmented Hessian           .... done
Diagonalizing the augmented Hessian     .... done
Last element of RFO vector              ....  0.999798511
Lowest eigenvalues of augmented Hessian:
 -0.000110398  0.032005211  0.032005265  0.032005308  0.246974237
Length of the computed step             ....  0.020077363
The final length of the internal step   ....  0.020077363
Converting the step to Cartesian space:
 Initial RMS(Int)=    0.0051839527
Transforming coordinates:
 Iter   0:  RMS(Cart)=    0.0071692205 RMS(Int)=    0.0051833720
done
Storing new coordinates                 .... done
The predicted energy change is          ....    -0.000055221
Previously predicted energy change      ....    -0.000245098
Actually observed energy change         ....    -0.000312413
Ratio of predicted to observed change   ....     1.274643924
New trust radius                        ....     0.300000000

                                .--------------------.
          ----------------------|Geometry convergence|-------------------------
          Item                value                   Tolerance       Converged
          ---------------------------------------------------------------------
          Energy change      -0.0003124133            0.0000050000      NO
          RMS gradient        0.0015431726            0.0001000000      NO
          MAX gradient        0.0036236458            0.0003000000      NO
          RMS step            0.0051839527            0.0020000000      NO
          MAX step            0.0122150282            0.0040000000      NO
          ........................................................
          Max(Bonds)      0.0040      Max(Angles)    0.70
          Max(Dihed)        0.01      Max(Improp)    0.00
          ---------------------------------------------------------------------

The optimization has not yet converged - more geometry cycles are needed


    ---------------------------------------------------------------------------
                         Redundant Internal Coordinates
                            (Angstroem and degrees)

        Definition                    Value    dE/dq     Step     New-Value
    ----------------------------------------------------------------------------
     1. B(O   1,C   0)                1.2175  0.003624 -0.0030    1.2145   
     2. B(N   2,C   0)                1.3617 -0.000548  0.0010    1.3627   
     3. B(H   3,C   0)                1.1160 -0.001133  0.0040    1.1200   
     4. B(H   4,N   2)                1.0150  0.000155  0.0001    1.0151   
     5. B(H   5,N   2)                1.0121  0.000316 -0.0003    1.0118   
     6. A(N   2,C   0,H   3)          112.61  0.002432   -0.55    112.06   
     7. A(O   1,C   0,N   2)          124.06 -0.003273    0.70    124.76   
     8. A(O   1,C   0,H   3)          123.33  0.000841   -0.15    123.18   
     9. A(H   4,N   2,H   5)          119.28 -0.000185    0.05    119.33   
    10. A(C   0,N   2,H   5)          122.51  0.001415   -0.34    122.16   
[...]
Nuclear contribution   :      2.311971111       1.773212166       0.929223544
                        -----------------------------------------
Total Dipole Moment    :      1.178380160       0.790382735       0.413747882
                        -----------------------------------------
Magnitude (a.u.)       :      1.477995933
Magnitude (Debye)      :      3.756767108



--------------------
Rotational spectrum 
--------------------
 
Rotational constants in cm-1:             2.433529             0.376269             0.325882 
Rotational constants in MHz :         72955.371428         11280.260400          9769.685702 

Dipole components along the rotational axes: 
x,y,z [a.u.] :     1.458177    -0.241232     0.000030 
x,y,z [Debye]:     3.706391    -0.613162     0.000077 

 

Dipole moment calculation done in   0.0 sec 

-----------
SCF HESSIAN
-----------

Occupied/Occupied contributions to the Hessian:
   => Occupied/Occupied contributions              ... done (  0.0 sec)
Perturbed density contributions to the Hessian:
   => Perturbed density contributions              ... done (  0.0 sec)
Explicit contributions to the Hessian:
   => Nuclear repulsion Hessian                    ... done (  0.0 sec)
   => HCore and overlap Hessian                    ... done (  0.3 sec)
   => RI-J Hessian                                 ... done (  0.8 sec)
   => COSX Hessian                                 ... done ( 40.6 sec)
   => XC-Hessian                                   ... done (  7.6 sec)
   => Explicit contributions done
Dipole derivatives                                 ... done (  0.0 sec)
Mass weighting the Hessian           ... done
Calculating normal modes             ... done
Scaling frequencies                  ... done

-----------------------
VIBRATIONAL FREQUENCIES
-----------------------

Scaling factor for frequencies =  1.000000000  (already applied!)

     0:       0.00 cm**-1
     1:       0.00 cm**-1
     2:       0.00 cm**-1
     3:       0.00 cm**-1
     4:       0.00 cm**-1
     5:       0.00 cm**-1
     6:      47.73 cm**-1
     7:     564.87 cm**-1
     8:     648.60 cm**-1
     9:    1040.69 cm**-1
    10:    1049.28 cm**-1
    11:    1269.10 cm**-1
    12:    1407.49 cm**-1
    13:    1580.16 cm**-1
    14:    1827.30 cm**-1
    15:    2909.99 cm**-1
    16:    3553.57 cm**-1
    17:    3701.60 cm**-1


------------
NORMAL MODES
------------

These modes are the Cartesian displacements weighted by the diagonal matrix
M(i,i)=1/sqrt(m[i]) where m[i] is the mass of the displaced atom
Thus, these vectors are normalized but *not* orthogonal

                  0          1          2          3          4          5    
      0       0.000000   0.000000   0.000000   0.000000   0.000000   0.000000
      1       0.000000   0.000000   0.000000   0.000000   0.000000   0.000000
      2       0.000000   0.000000   0.000000   0.000000   0.000000   0.000000
      3       0.000000   0.000000   0.000000   0.000000   0.000000   0.000000
      4       0.000000   0.000000   0.000000   0.000000   0.000000   0.000000
      5       0.000000   0.000000   0.000000   0.000000   0.000000   0.000000
      6       0.000000   0.000000   0.000000   0.000000   0.000000   0.000000
      7       0.000000   0.000000   0.000000   0.000000   0.000000   0.000000
      8       0.000000   0.000000   0.000000   0.000000   0.000000   0.000000
      9       0.000000   0.000000   0.000000   0.000000   0.000000   0.000000
     10       0.000000   0.000000   0.000000   0.000000   0.000000   0.000000
     11       0.000000   0.000000   0.000000   0.000000   0.000000   0.000000
     12       0.000000   0.000000   0.000000   0.000000   0.000000   0.000000
     13       0.000000   0.000000   0.000000   0.000000   0.000000   0.000000
     14       0.000000   0.000000   0.000000   0.000000   0.000000   0.000000
     15       0.000000   0.000000   0.000000   0.000000   0.000000   0.000000
     16       0.000000   0.000000   0.000000   0.000000   0.000000   0.000000
     17       0.000000   0.000000   0.000000   0.000000   0.000000   0.000000
                  6          7          8          9         10         11    
      0       0.000017   0.094969  -0.000114   0.000065  -0.039481  -0.272607
      1      -0.007598  -0.153582   0.048429   0.096582  -0.018073   0.130541
      2       0.014508  -0.080723  -0.091951  -0.184275  -0.010124   0.068246
      3       0.000003  -0.211065   0.000344   0.000265  -0.100954   0.023545
      4      -0.006574   0.013044  -0.028464  -0.024882  -0.059398  -0.031803
      5       0.012558   0.007016   0.054383   0.047887  -0.030910  -0.016621
      6       0.000019   0.124271  -0.000231  -0.000347   0.140664   0.180436
      7       0.059421   0.075070  -0.021475  -0.016262   0.119614  -0.098050
      8      -0.113437   0.039413   0.040674   0.030382   0.062751  -0.051307
      9       0.000001   0.209560  -0.000334   0.000829  -0.291005  -0.414472
     10       0.005878  -0.097747   0.099158  -0.445579  -0.140211   0.066894
     11      -0.011223  -0.051323  -0.188980   0.850625  -0.070800   0.034806
     12      -0.000180   0.642694  -0.000821   0.000718  -0.373366   0.779819
     13      -0.251312   0.367390   0.352505  -0.080575  -0.180638   0.237003
     14       0.479662   0.189646  -0.674196   0.154704  -0.094374   0.124481
     15      -0.000327  -0.360686   0.000260  -0.001704   0.782515   0.001931
     16      -0.385397   0.310196  -0.278532  -0.003791  -0.183165   0.007883
     17       0.735667   0.164504   0.530461   0.008192  -0.095560   0.004265
                 12         13         14         15         16         17    
      0      -0.061401   0.029011   0.408032   0.036851  -0.002962   0.001431
      1       0.037988  -0.042833   0.427249  -0.066522  -0.000578  -0.001822
      2       0.019827  -0.022395   0.223588  -0.034869  -0.000299  -0.000953
      3      -0.018094   0.019292  -0.202233  -0.000254  -0.000337   0.000155
      4      -0.080075   0.035296  -0.281487   0.000624  -0.000415   0.000447
      5      -0.041908   0.018467  -0.147220   0.000322  -0.000221   0.000235
      6      -0.002941  -0.125726  -0.095099  -0.000359   0.053762  -0.002633
      7       0.027882   0.001851  -0.054507   0.000791  -0.004810  -0.076439
      8       0.014624   0.000926  -0.028609   0.000410  -0.002504  -0.040049
      9       0.839403  -0.034605  -0.546219  -0.444874   0.001763  -0.004757
     10       0.434386  -0.082624   0.011906   0.789530   0.004275   0.007814
     11       0.227369  -0.043234   0.006025   0.414003   0.002267   0.004085
     12       0.042193   0.511646   0.300108   0.006032  -0.409933  -0.345047
     13       0.048382   0.360777   0.187985  -0.006340   0.575497   0.470105
     14       0.025405   0.189146   0.098678  -0.003354   0.301403   0.246173
     15       0.178095   0.618139  -0.084548   0.008755  -0.298248   0.366873
     16      -0.051924  -0.353704  -0.065661  -0.011432  -0.499469   0.598884
     17      -0.027079  -0.185039  -0.034679  -0.005967  -0.261798   0.313886


-----------
IR SPECTRUM
-----------

 Mode   freq       eps      Int      T**2         TX        TY        TZ
       cm**-1   L/(mol*cm) km/mol    a.u.
----------------------------------------------------------------------------
  6:     47.73   0.039377  199.00  0.257473  (-0.000083 -0.235408  0.449507)
  7:    564.87   0.002208   11.16  0.001220  ( 0.033365 -0.009115 -0.004871)
  8:    648.60   0.002874   14.52  0.001383  ( 0.000002  0.017273 -0.032930)
  9:   1040.69   0.000086    0.44  0.000026  (-0.000004 -0.002343  0.004514)
 10:   1049.28   0.000382    1.93  0.000114  (-0.010588 -0.001116 -0.000572)
 11:   1269.10   0.017643   89.16  0.004338  (-0.065655  0.004652  0.002447)
 12:   1407.49   0.000999    5.05  0.000221  ( 0.007979  0.011128  0.005829)
 13:   1580.16   0.012638   63.87  0.002496  ( 0.049689 -0.004588 -0.002398)
 14:   1827.30   0.071988  363.80  0.012294  ( 0.088205  0.059515  0.031177)
 15:   2909.99   0.024280  122.70  0.002604  ( 0.020703 -0.041306 -0.021656)
 16:   3553.57   0.005250   26.53  0.000461  (-0.021467  0.000406  0.000210)
 17:   3701.60   0.006934   35.04  0.000585  (-0.000005  0.021422  0.011213)

* The epsilon (eps) is given for a Dirac delta lineshape.
** The dipole moment derivative (T) already includes vibrational overlap.

The first frequency considered to be a vibration is 6
The total number of vibrations considered is 12


--------------------------
THERMOCHEMISTRY AT 298.15K
--------------------------

Temperature         ...   298.15 K
Pressure            ...     1.00 atm
Total Mass          ...    45.04 AMU
Quasi RRHO          ...     True
Cut-Off Frequency   ...     1.00 cm^-1

Throughout the following assumptions are being made:
  (1) The electronic state is orbitally nondegenerate
  (2) There are no thermally accessible electronically excited states
  (3) Hindered rotations indicated by low frequency modes are not
      treated as such but are treated as vibrations and this may
      cause some error
  (4) All equations used are the standard statistical mechanics
      equations for an ideal gas
  (5) All vibrations are strictly harmonic

freq.      47.73  E(vib)   ...       0.53 
freq.     564.87  E(vib)   ...       0.11 
freq.     648.60  E(vib)   ...       0.08 
freq.    1040.69  E(vib)   ...       0.02 
freq.    1049.28  E(vib)   ...       0.02 
freq.    1269.10  E(vib)   ...       0.01 
freq.    1407.49  E(vib)   ...       0.00 
freq.    1580.16  E(vib)   ...       0.00 
freq.    1827.30  E(vib)   ...       0.00 
freq.    2909.99  E(vib)   ...       0.00 
freq.    3553.57  E(vib)   ...       0.00 
freq.    3701.60  E(vib)   ...       0.00 

------------
INNER ENERGY
------------

The inner energy is: U= E(el) + E(ZPE) + E(vib) + E(rot) + E(trans)
    E(el)   - is the total energy from the electronic structure calculation
              = E(kin-el) + E(nuc-el) + E(el-el) + E(nuc-nuc)
    E(ZPE)  - the the zero temperature vibrational energy from the frequency calculation
    E(vib)  - the the finite temperature correction to E(ZPE) due to population
              of excited vibrational states
    E(rot)  - is the rotational thermal energy
    E(trans)- is the translational thermal energy

Summary of contributions to the inner energy U:
Electronic energy                ...   -169.81392883 Eh
Zero point energy                ...      0.04465294 Eh      28.02 kcal/mol
Thermal vibrational correction   ...      0.00124170 Eh       0.78 kcal/mol
Thermal rotational correction    ...      0.00141627 Eh       0.89 kcal/mol
Thermal translational correction ...      0.00141627 Eh       0.89 kcal/mol
-----------------------------------------------------------------------
Total thermal energy                   -169.76520164 Eh


Summary of corrections to the electronic energy:
(perhaps to be used in another calculation)
Total thermal correction                  0.00407424 Eh       2.56 kcal/mol
Non-thermal (ZPE) correction              0.04465294 Eh      28.02 kcal/mol
-----------------------------------------------------------------------
Total correction                          0.04872719 Eh      30.58 kcal/mol


--------
ENTHALPY
--------

The enthalpy is H = U + kB*T
                kB is Boltzmann's constant
Total thermal energy              ...   -169.76520164 Eh 
Thermal Enthalpy correction       ...      0.00094421 Eh       0.59 kcal/mol
-----------------------------------------------------------------------
Total Enthalpy                    ...   -169.76425743 Eh


Note: Only C1 symmetry has been detected, increase convergence thresholds 
      if your molecule has a higher symmetry. Symmetry factor of 1.0 is   
      used for the rotational entropy correction. 
 

Note: Rotational entropy computed according to Herzberg 
Infrared and Raman Spectra, Chapter V,1, Van Nostrand Reinhold, 1945 
Point Group:  C1, Symmetry Number:   1  
Rotational constants in cm-1:     2.433529     0.376269     0.325882 

Vibrational entropy computed according to the QRRHO of S. Grimme
Chem.Eur.J. 2012 18 9955 using a reference frequency of 100.0 cm-1


-------
ENTROPY
-------

The entropy contributions are T*S = T*(S(el)+S(vib)+S(rot)+S(trans))
     S(el)   - electronic entropy
     S(vib)  - vibrational entropy
     S(rot)  - rotational entropy
     S(trans)- translational entropy
The entropies will be listed as multiplied by the temperature to get
units of energy

Electronic entropy                ...      0.00000000 Eh      0.00 kcal/mol
Vibrational entropy               ...      0.00225681 Eh      1.42 kcal/mol
Rotational entropy                ...      0.01008172 Eh      6.33 kcal/mol
Translational entropy             ...      0.01774163 Eh     11.13 kcal/mol
-----------------------------------------------------------------------
Final entropy term                ...      0.03008017 Eh     18.88 kcal/mol

In case the symmetry of your molecule has not been determined correctly
or in case you have a reason to use a different symmetry number we print 
out the resulting rotational entropy values for sn=1,12:

 non-linear molecules -----------------------------------
|  sn= 1 | S(rot)=       0.01008172 Eh      6.33 kcal/mol|
|  sn= 2 | S(rot)=       0.00942727 Eh      5.92 kcal/mol|
|  sn= 3 | S(rot)=       0.00904443 Eh      5.68 kcal/mol|
|  sn= 4 | S(rot)=       0.00877281 Eh      5.51 kcal/mol|
|  sn= 5 | S(rot)=       0.00856212 Eh      5.37 kcal/mol|
|  sn= 6 | S(rot)=       0.00838998 Eh      5.26 kcal/mol|
|  sn= 7 | S(rot)=       0.00824443 Eh      5.17 kcal/mol|
|  sn= 8 | S(rot)=       0.00811835 Eh      5.09 kcal/mol|
|  sn= 9 | S(rot)=       0.00800715 Eh      5.02 kcal/mol|
|  sn=10 | S(rot)=       0.00790767 Eh      4.96 kcal/mol|
|  sn=11 | S(rot)=       0.00781768 Eh      4.91 kcal/mol|
|  sn=12 | S(rot)=       0.00773552 Eh      4.85 kcal/mol|
 linear molecules ---------------------------------------
|  Dinfh | S(rot)=       0.00638444 Eh      4.01 kcal/mol|
|  Cinfv | S(rot)=       0.00703890 Eh      4.42 kcal/mol|
 --------------------------------------------------------


-------------------
GIBBS FREE ENERGY
-------------------

The Gibbs free energy is G = H - T*S

Total enthalpy                    ...   -169.76425743 Eh 
Total entropy correction          ...     -0.03008017 Eh    -18.88 kcal/mol
-----------------------------------------------------------------------
Final Gibbs free energy         ...   -169.79433760 Eh

For completeness - the Gibbs free energy minus the electronic energy
G-E(el)                           ...      0.01959123 Eh     12.29 kcal/mol


Maximum memory used throughout the entire PROP-calculation: 13.8 MB

--------------------------------
SUGGESTED CITATIONS FOR THIS RUN
--------------------------------

Below you find a list of papers that are relevant to this ORCA run
We neither can nor want to force you to cite these papers, but we appreciate if you do
You receive ORCA, which is the product of decades of hard work by many enthusiastic individuals, for free
The only thing we kindly ask in return is that you cite our papers,
We deeply appreciate it, if you show your appreciation for ORCA by not just citing the generic ORCA reference.

Please note that relegating all ORCA citations to the supporting information does *not* help us.
SI sections are not indexed - citations you put there will not count into any citation statistics
But we need these citations in order to attract the funding resources that allow us to do what we are doing

Therefore, if you are a happy ORCA user, please consider citing a few of the papers listed below in the main body of your paper

In addition to the list printed below, the program has created the file opt.bibtex that contains the list in bibtex format
You can import this file easily into all common literature databanks and citation aid programs


List of essential papers. We consider these as the minimum necessary citations

  1. Neese,F.
     Software update: the ORCA program system, version 5.0
     WIRES Comput. Molec. Sci., 2022 12(1)e1606
     doi.org/10.1002/wcms.1606

List of papers to cite with high priority. The work reported in these papers was absolutely
necessary for this run to complete.
Our perspective: the developers of density functionals and basis sets usually get cited in chemistry papers
Good! But without the algorithms to do something with them, the functionals or basis sets would not do anything.
Hence, in our opinion, the algorithm design and method developments papers are equally worthy of getting cited

  1. Neese,F.
     An improvement of the resolution of the identity approximation for the formation of the Coulomb matrix
     J. Comp. Chem., 2003 24(14)1740-1747
     doi.org/10.1002/jcc.10318
  2. Neese,F.; Wennmohs,F.; Hansen,A.; Becker,U.
     Efficient, approximate and parallel Hartree-Fock and hybrid DFT calculations. A 'chain-of-spheres' algorithm for the Hartree-Fock exchange
     Chem. Phys., 2009 356(1-3)98-109
     doi.org/10.1016/j.chemphys.2008.10.036
  3. Bykov,D.; Petrenko,T.; Izsak,R.; Kossmann,S.; Becker,U.; Valeev,E.; Neese,F.
     Efficient implementation of the analytic second derivatives of Hartree-Fock and hybrid DFT energies: a detailed analysis of different approximations
     Molec. Phys., 2015 113 1961-1977
     doi.org/10.1080/00268976.2015.1025114
  4. Helmich-Paris,B.; de Souza,B.; Neese,F.; Izsák,R.
     An improved chain of spheres for exchange algorithm
     J. Chem. Phys., 2021 155 104109
     doi.org/doi: 10.1063/5.0058766.
  5. Neese,F.
     The SHARK Integral Generation and Digestion System
     J. Comp. Chem., 2022  1-16
     doi.org/10.1002/jcc.26942

List of suggested additional citations. These are papers that are important in the 'surrounding' of 
of this run, or papers that preceded the highly important papers. If you like your results we are grateful for a citation.

  1. Izsak,R.; Neese,F.
     An overlap fitted chain of spheres exchange method
     J. Chem. Phys., 2011 135 144105
     doi.org/10.1063/1.3646921
  2. Izsak,R.; Hansen,A.; Neese,F.
     The resolution of identity and chain of spheres approximations for the LPNO-CCSD singles Fock term
     Molec. Phys., 2012 110 2413-2417
     doi.org/10.1080/00268976.2012.687466
  3. Neese,F.
     The ORCA program system
     WIRES Comput. Molec. Sci., 2012 2(1)73-78
     doi.org/10.1002/wcms.81
  4. Izsak,R.; Neese,F.; Klopper,W.
     Robust fitting techniques in the chain of spheres approximation to the Fock exchange: The role of the complementary space
     J. Chem. Phys., 2013 139 
     doi.org/10.1063/1.4819264
  5. Neese,F.
     Software update: the ORCA program system, version 4.0
     WIRES Comput. Molec. Sci., 2018 8(1)1-6
     doi.org/10.1002/wcms.1327
  6. Neese,F.; Wennmohs,F.; Becker,U.; Riplinger,C.
     The ORCA quantum chemistry program package
     J. Chem. Phys., 2020 152 Art. No. L224108
     doi.org/10.1063/5.0004608

List of optional additional citations

  1. Neese,F.
     Approximate second-order SCF convergence for spin unrestricted wavefunctions
     Chem. Phys. Lett., 2000 325(1-3)93-98
     doi.org/10.1016/s0009-2614(00)00662-x

Timings for individual modules:

Sum of individual times          ...      143.308 sec (=   2.388 min)
Startup calculation              ...        8.791 sec (=   0.147 min)   6.1 %
SCF iterations                   ...       35.769 sec (=   0.596 min)  25.0 %
Property integrals               ...       12.001 sec (=   0.200 min)   8.4 %
SCF Response                     ...        5.687 sec (=   0.095 min)   4.0 %
Property calculations            ...       50.406 sec (=   0.840 min)  35.2 %
SCF Gradient evaluation          ...       30.409 sec (=   0.507 min)  21.2 %
Geometry relaxation              ...        0.246 sec (=   0.004 min)   0.2 %
                             ****ORCA TERMINATED NORMALLY****
TOTAL RUN TIME: 0 days 0 hours 2 minutes 23 seconds 947 msec
