
                                 *****************
                                 * O   R   C   A *
                                 *****************

                                            #,                                       
                                            ###                                      
                                            ####                                     
                                            #####                                    
                                            ######                                   
                                           ########,                                 
                                     ,,################,,,,,                         
                               ,,#################################,,                 
                          ,,##########################################,,             
                       ,#########################################, ''#####,          
                    ,#############################################,,   '####,        
                  ,##################################################,,,,####,       
                ,###########''''           ''''###############################       
              ,#####''   ,,,,##########,,,,          '''####'''          '####       
            ,##' ,,,,###########################,,,                        '##       
           ' ,,###''''                  '''############,,,                           
         ,,##''                                '''############,,,,        ,,,,,,###''
      ,#''                                            '''#######################'''  
     '                                                          ''''####''''         
             ,#######,   #######,   ,#######,      ##                                
            ,#'     '#,  ##    ##  ,#'     '#,    #''#        ,####,   ,####,        
            ##       ##  ##   ,#'  ##            #'  '#       #'       #'  '#        
            ##       ##  #######   ##           ,######,      #####,   #    #        
            '#,     ,#'  ##    ##  '#,     ,#' ,#      #,     #,   #   #,  ,#        
             '#######'   ##     ##  '#######'  #'      '#     '####' # '####'        



                #########################################################
                #                        -***-                          #
                #          Department of theory and spectroscopy        #
                #                                                       #
                #                      Frank Neese                      #
                #                                                       #
                #     Directorship, Architecture, Infrastructure        #
                #                    SHARK, DRIVERS                     #
                #        Core code/Algorithms in most modules           #
                #                                                       #
                #        Max Planck Institute fuer Kohlenforschung      #
                #                Kaiser Wilhelm Platz 1                 #
                #                 D-45470 Muelheim/Ruhr                 #
                #                      Germany                          #
                #                                                       #
                #                  All rights reserved                  #
                #                        -***-                          #
                #########################################################


                         Program Version 6.0.1  -  RELEASE   -


 With contributions from (in alphabetic order):
[Max-Planck-Institut fuer Kohlenforschung]                               
  Daniel Aravena         : Magnetic Suceptibility                        
  Michael Atanasov       : Ab Initio Ligand Field Theory (pilot matlab implementation)
  Alexander A. Auer      : GIAO ZORA, VPT2 properties, NMR spectrum      
  Ute Becker             : All parallelization in ORCA, NUMFREQ, NUMCALC 
  Giovanni Bistoni       : ED, misc. LED, open-shell LED, HFLD           
  Martin Brehm           : Molecular dynamics                            
  Dmytro Bykov           : pre 5.0 version of the SCF Hessian            
  Marcos Casanova-Páez   : Triplet and SCS-CIS(D). UHF-(DLPNO)-IP/EA/STEOM-CCSD. UHF-CVS-IP/STEOM-CCSD   
  Vijay G. Chilkuri      : MRCI spin determinant printing, contributions to CSF-ICE 
  Pauline Colinet        : FMM embedding                                 
  Dipayan Datta          : RHF DLPNO-CCSD density                        
  Achintya Kumar Dutta   : EOM-CC, STEOM-CC                              
  Nicolas Foglia         : Exact transition moments, OPA infrastructure, MCD improvements    
  Dmitry Ganyushin       : Spin-Orbit,Spin-Spin,Magnetic field MRCI      
  Miquel Garcia-Rates    : C-PCM and meta-GGA Hessian, CCSD/C-PCM, Gaussian charge scheme 
  Tiago L. C. Gouveia    : GS-ROHF, GS-ROCIS                             
  Yang Guo               : DLPNO-NEVPT2, F12-NEVPT2, CIM, IAO-localization        
  Andreas Hansen         : Spin unrestricted coupled pair/coupled cluster methods 
  Ingolf Harden          : AUTO-CI MPn and infrastructure                
  Benjamin Helmich-Paris : MC-RPA, TRAH-(SCF,CASSCF), AVAS, COSX integrals, SCF dyn. polar. 
  Lee Huntington         : MR-EOM, pCC                                   
  Robert Izsak           : Overlap fitted RIJCOSX, COSX-SCS-MP3, EOM     
  Riya Kayal             : Wick's Theorem for AUTO-CI, AUTO-CI UHF-CCSDT 
  Emily Kempfer          : AUTO-CI, RHF CISDT and CCSDT                  
  Christian Kollmar      : KDIIS, OOCD, Brueckner-CCSD(T), CCSD density, CASPT2, CASPT2-K, improved NEVPT2 
  Axel Koslowski         : Symmetry handling                             
  Simone Kossmann        : meta-GGA functionals, TD-DFT gradient, OOMP2, (MP2 Hessian; deprecated post 5.0) 
  Lucas Lang             : DCDCAS                                        
  Marvin Lechner         : AUTO-CI (C++ implementation), FIC-MRCC        
  Spencer Leger          : CASSCF response                               
  Dagmar Lenk            : GEPOL surface, SMD, ORCA-2-JSON               
  Dimitrios Liakos       : Extrapolation schemes; Compound Job, initial MDCI parallelization 
  Dimitrios Manganas     : Further ROCIS development; embedding schemes. LFT, Crystal Embedding 
  Dimitrios Pantazis     : SARC Basis sets                               
  Anastasios Papadopoulos: AUTO-CI, single reference methods and gradients 
  Taras Petrenko         : pre 6.0 DFT Hessian and TD-DFT gradient, (ASA, deprecated), ECA, 1-Electron XAS/XES, NRVS 
  Peter Pinski           : DLPNO-MP2, DLPNO-MP2 Gradient                 
  Christoph Reimann      : Effective Core Potentials                     
  Marius Retegan         : Local ZFS, SOC                                
  Christoph Riplinger    : Optimizer, TS searches, QM/MM, DLPNO-CCSD(T), (RO)-DLPNO pert. Triples 
  Michael Roemelt        : Original ROCIS implementation                 
  Masaaki Saitow         : Open-shell DLPNO-CCSD energy and density      
  Barbara Sandhoefer     : DKH picture change effects                    
  Kantharuban Sivalingam : CASSCF convergence/infrastructure, NEVPT2 and variants, FIC-MRCI 
  Bernardo de Souza      : ESD, SOC TD-DFT                               
  Georgi L. Stoychev     : AutoAux, RI-MP2 NMR, DLPNO-MP2 response, X2C  
  Van Anh Tran           : RI-MP2 g-tensors                              
  Willem Van den Heuvel  : Paramagnetic NMR                              
  Zikuan Wang            : NOTCH, Electric field optimization            
  Frank Wennmohs         : Technical directorship and infrastructure     
  Hang Xu                : AUTO-CI-Response properties                   
                                                                         
[FACCTs GmbH]                                                            
  Markus Bursch, Miquel Garcia-Rates, Christoph Riplinger, Bernardo de Souza, Georgi L. Stoychev 
                                                                 
  APM, Basis sets (HGBS, AHGBS, def-TZVP (Ac-Lr), def2-XVPD (La-Lu)), CI-OPT, improved COSX, DLPNO-Multilevel,           
  DOCKER, DRACO, updates on ESD, GOAT, IRC, LR-CPCM, MBIS, meta-GGA TD-DFT gradient, ML-optimized integration grids, 
  MM, NACMEs, nearIR, NEB, NEB-TS, NL-DFT gradient (VV10), 2- and 3-layer-ONIOM, interface openCOSMO-RS, QMMM,   
  Crystal-QMMM, SF, symmetry and pop. for TD-DFT, r2SCAN hybrids, SOLVATOR                                   
                                                                         
[Other institutions]                                                     
  V. Asgeirsson          : NEB                                           
  Christoph Bannwarth    : sTDA-DFT, sTD-DFT, PBEh-3c, B97-3c, D3        
  Sebastian Ehlert       : rSCAN, r2SCAN, r2SCAN-3c, D4, dhf basis sets  
  Marvin Friede          : D4 for Fr, Ra, Ac-Lr                          
  Lars Goerigk           : TD-DFT with DH, B97 family of functionals     
  Stefan Grimme          : VdW corrections, initial TS optimization, DFT functionals, gCP, sTDA/sTD-DF 
  Waldemar Hujo          : DFT-NL                                        
  H. Jonsson             : NEB                                           
  Holger Kruse           : gCP                                           
  Marcel Mueller         : wB97X-3c, vDZP basis set                      
  Hagen Neugebauer       : wr2SCAN                                       
  Tobias Risthaus        : range-separated hybrid DFT                    
  Lukas Wittmann         : regularized MP2, r2SCAN double-hybrids, wr2SCAN        
                                                                         
We gratefully acknowledge several colleagues who have allowed us to      
interface, adapt or use parts of their codes:                            
  Ed Valeev, F. Pavosevic, A. Kumar             : LibInt (2-el integral package), F12 methods 
  Garnet Chan, S. Sharma, J. Yang, R. Olivares  : DMRG                   
  Ulf Ekstrom                                   : XCFun DFT Library      
  Mihaly Kallay                                 : mrcc  (arbitrary order and MRCC methods)
  Frank Weinhold                                : gennbo (NPA and NBO analysis)           
  Simon Mueller                                 : openCOSMO-RS                            
  Christopher J. Cramer and Donald G. Truhlar   : smd solvation model                     
  S Lehtola, MJT Oliveira, MAL Marques          : LibXC Library                           
  Liviu Ungur et al                             : ANISO software                          


 Your calculation uses the libint2 library for the computation of 2-el integrals
 For citations please refer to: http://libint.valeyev.net

 Your ORCA version has been built with support for libXC version: 6.2.2
 For citations please refer to: https://libxc.gitlab.io

 This ORCA versions uses:
   CBLAS   interface :  Fast vector & matrix operations
   LAPACKE interface :  Fast linear algebra routines
   SCALAPACK package :  Parallel linear algebra routines
   Shared memory     :  Shared parallel matrices
   BLAS/LAPACK       :  OpenBLAS 0.3.27  USE64BITINT DYNAMIC_ARCH NO_AFFINITY Haswell SINGLE_THREADED
        Core in use  :  Haswell
   Copyright (c) 2011-2014, The OpenBLAS Project




***************************************
The coordinates will be read from file: dihedral.xyz
***************************************


================================================================================

----- Orbital basis set information -----
Your calculation utilizes the basis: cc-pVDZ 
       H, B-Ne : Obtained from the ccRepo (grant-hill.group.shef.ac.uk/ccrepo) Feb. 2017
                 T. H. Dunning, Jr., J. Chem. Phys. 90, 1007 (1989)
            He : Obtained from the ccRepo (grant-hill.group.shef.ac.uk/ccrepo) Feb. 2017
                 D. E. Woon, T. H. Dunning, Jr., J. Chem. Phys. 100, 2975 (1994)
  Li-Be, Na-Mg : Obtained from the ccRepo (grant-hill.group.shef.ac.uk/ccrepo) Feb. 2017
                 B. P. Prascher, D. E. Woon, K. A. Peterson, T. H. Dunning, Jr., A. K. Wilson, Theor. Chem. Acc. 128, 69 (2011)
         Al-Ar : Obtained from the ccRepo (grant-hill.group.shef.ac.uk/ccrepo) Feb. 2017
                 D. E. Woon, T. H. Dunning, Jr., J. Chem. Phys. 98, 1358 (1993)
            Ca : Obtained from the Peterson Research Group Website (tyr0.chem.wsu.edu/~kipeters) Feb. 2017
                 J. Koput, K. A. Peterson, J. Phys. Chem. 106, 9595 (2002)
         Sc-Zn : Obtained from the ccRepo (grant-hill.group.shef.ac.uk/ccrepo) Feb. 2017
                 N. B. Balabanov, K. A. Peterson, J. Chem. Phys. 123, 064107 (2005)
                 N. B. Balabanov, K. A. Peterson, J. Chem. Phys. 125, 074110 (2006)
         Ga-Kr : Obtained from the ccRepo (grant-hill.group.shef.ac.uk/ccrepo) Feb. 2017
                 A. K. Wilson, D. E. Woon, K. A. Peterson, T. H. Dunning, Jr., J. Chem. Phys. 110, 7667 (1999)

----- AuxJ basis set information -----
Your calculation utilizes the auxiliary basis: def2/J
   F. Weigend, Phys. Chem. Chem. Phys. 8, 1057 (2006).

================================================================================
                                        WARNINGS
                       Please study these warnings very carefully!
================================================================================


================================================================================
                                       INPUT FILE
================================================================================
NAME = nbo.com
|  1> ! B3LYP cc-pVDZ def2/J RIJCOSX NBO
|  2> 
|  3> * xyzfile 0 1 dihedral.xyz
|  4> 
|  5>                          ****END OF INPUT****
================================================================================

                       ****************************
                       * Single Point Calculation *
                       ****************************

---------------------------------
CARTESIAN COORDINATES (ANGSTROEM)
---------------------------------
  C      0.988460   -0.141873   -0.002458
  O      0.345507   -1.054737   -0.479810
  N      2.349165   -0.077949    0.031473
  H      0.520676    0.758318    0.469698
  H      2.873790   -0.243493   -0.821114
  H      2.847061    0.130729    0.887123

----------------------------
CARTESIAN COORDINATES (A.U.)
----------------------------
  NO LB      ZA    FRAG     MASS         X           Y           Z
   0 C     6.0000    0    12.011    1.867919   -0.268102   -0.004644
   1 O     8.0000    0    15.999    0.652913   -1.993165   -0.906710
   2 N     7.0000    0    14.007    4.439278   -0.147302    0.059476
   3 H     1.0000    0     1.008    0.983935    1.433013    0.887600
   4 H     1.0000    0     1.008    5.430675   -0.460135   -1.551681
   5 H     1.0000    0     1.008    5.380167    0.247043    1.676420

--------------------------------
INTERNAL COORDINATES (ANGSTROEM)
--------------------------------
 C      0   0   0     0.000000000000     0.00000000     0.00000000
 O      1   0   0     1.214320820051     0.00000000     0.00000000
 N      1   2   0     1.362628091244   125.01449517     0.00000000
 H      1   2   3     1.118971157173   123.31850457   180.10054251
 H      3   1   2     1.014663331872   119.19186843    50.05551299
 H      3   1   2     1.011723542319   121.47783737   230.05381291

---------------------------
INTERNAL COORDINATES (A.U.)
---------------------------
 C      0   0   0     0.000000000000     0.00000000     0.00000000
 O      1   0   0     2.294733788616     0.00000000     0.00000000
 N      1   2   0     2.574993914838   125.01449517     0.00000000
 H      1   2   3     2.114549038814   123.31850457   180.10054251
 H      3   1   2     1.917435815370   119.19186843    50.05551299
 H      3   1   2     1.911880418223   121.47783737   230.05381291

---------------------
BASIS SET INFORMATION
---------------------
There are 4 groups of distinct atoms

 Group   1 Type C   : 17s4p1d contracted to 3s2p1d pattern {881/31/1}
 Group   2 Type O   : 17s4p1d contracted to 3s2p1d pattern {881/31/1}
 Group   3 Type N   : 17s4p1d contracted to 3s2p1d pattern {881/31/1}
 Group   4 Type H   : 4s1p contracted to 2s1p pattern {31/1}

Atom   0C    basis set group =>   1
Atom   1O    basis set group =>   2
Atom   2N    basis set group =>   3
Atom   3H    basis set group =>   4
Atom   4H    basis set group =>   4
Atom   5H    basis set group =>   4
---------------------------------
AUXILIARY/J BASIS SET INFORMATION
---------------------------------
There are 4 groups of distinct atoms

 Group   1 Type C   : 12s5p4d2f1g contracted to 6s4p3d1f1g pattern {711111/2111/211/2/1}
 Group   2 Type O   : 12s5p4d2f1g contracted to 6s4p3d1f1g pattern {711111/2111/211/2/1}
 Group   3 Type N   : 12s5p4d2f1g contracted to 6s4p3d1f1g pattern {711111/2111/211/2/1}
 Group   4 Type H   : 5s2p1d contracted to 3s1p1d pattern {311/2/1}

Atom   0C    basis set group =>   1
Atom   1O    basis set group =>   2
Atom   2N    basis set group =>   3
Atom   3H    basis set group =>   4
Atom   4H    basis set group =>   4
Atom   5H    basis set group =>   4
------------------------------------------------------------------------------
                             ORCA STARTUP CALCULATIONS
                           -- RI-GTO INTEGRALS CHOSEN --
------------------------------------------------------------------------------
------------------------------------------------------------------------------
                   ___                                                        
                  /   \      - P O W E R E D   B Y -                         
                 /     \                                                     
                 |  |  |   _    _      __       _____    __    __             
                 |  |  |  | |  | |    /  \     |  _  \  |  |  /  |          
                  \  \/   | |  | |   /    \    | | | |  |  | /  /          
                 / \  \   | |__| |  /  /\  \   | |_| |  |  |/  /          
                |  |  |   |  __  | /  /__\  \  |    /   |      \           
                |  |  |   | |  | | |   __   |  |    \   |  |\   \          
                \     /   | |  | | |  |  |  |  | |\  \  |  | \   \       
                 \___/    |_|  |_| |__|  |__|  |_| \__\ |__|  \__/        
                                                                              
                      - O R C A' S   B I G   F R I E N D -                    
                                      &                                       
                       - I N T E G R A L  F E E D E R -                       
                                                                              
 v1 FN, 2020, v2 2021, v3 2022-2024                                           
------------------------------------------------------------------------------


----------------------
SHARK INTEGRAL PACKAGE
----------------------

Number of atoms                             ...      6
Number of basis functions                   ...     75
Number of shells                            ...     45
Maximum angular momentum                    ...      2
Integral batch strategy                     ... SHARK/LIBINT Hybrid
RI-J (if used) integral strategy            ... SPLIT-RIJ (Revised 2003 algorithm where possible)
Printlevel                                  ...      1
Contraction scheme used                     ... PARTIAL GENERAL contraction
Prescreening option                         ... SCHWARTZ
   Thresh                                   ... 1.000e-10
   Tcut                                     ... 1.000e-11
   Tpresel                                  ... 1.000e-11 
Coulomb Range Separation                    ... NOT USED
Exchange Range Separation                   ... NOT USED
Multipole approximations                    ... NOT USED
Finite Nucleus Model                        ... NOT USED
CABS basis                                  ... NOT available
Auxiliary Coulomb fitting basis             ... AVAILABLE
   # of basis functions in Aux-J            ...    180
   # of shells in Aux-J                     ...     60
   Maximum angular momentum in Aux-J        ...      4
Auxiliary J/K fitting basis                 ... NOT available
Auxiliary Correlation fitting basis         ... NOT available
Auxiliary 'external' fitting basis          ... NOT available

Checking pre-screening integrals            ... done (  0.0 sec) Dimension = 45
Save PGC pre-screening integrals            ... done (  0.0 sec) Dimension = 45
Calculate PGC overlap integrals             ... done (  0.0 sec) Dimension = 27
Calculating pre-screening integrals (ORCA)  ... done (  0.0 sec) Dimension = 27
Check shell pair data                       ... done (  0.0 sec)
Shell pair information
Shell pair cut-off parameter TPreSel        ...   1.0e-11
Total number of shell pairs                 ...      1035
Shell pairs after pre-screening             ...       907
Total number of primitive shell pairs       ...      1671
Primitive shell pairs kept                  ...      1387
          la=0 lb=0:    435 shell pairs
          la=1 lb=0:    295 shell pairs
          la=1 lb=1:     45 shell pairs
          la=2 lb=0:     99 shell pairs
          la=2 lb=1:     27 shell pairs
          la=2 lb=2:      6 shell pairs

Calculating one electron integrals          ... done (  0.0 sec)
Calculating RI/J V-Matrix + Cholesky decomp.... done (  0.0 sec)
Calculating Nuclear repulsion               ... done (  0.0 sec) ENN=     70.923174430333 Eh

Diagonalization of the overlap matrix:
Smallest eigenvalue                        ... 7.916e-03
Time for diagonalization                   ...    0.000 sec
Threshold for overlap eigenvalues          ... 1.000e-07
Number of eigenvalues below threshold      ... 0
Time for construction of square roots      ...    0.000 sec
Total time needed                          ...    0.001 sec

-------------------
DFT GRID GENERATION
-------------------

General Integration Accuracy     IntAcc      ... 4.388
Radial Grid Type                 RadialGrid  ... OptM3 with GC (2021)
Angular Grid (max. ang.)         AngularGrid ... 4 (Lebedev-302)
Angular grid pruning method      GridPruning ... 4 (adaptive)
Weight generation scheme         WeightScheme... mBecke (2022)
Basis function cutoff            BFCut       ... 1.0000e-10
Integration weight cutoff        WCut        ... 1.0000e-14
Partially contracted basis set               ... off
Rotationally invariant grid construction     ... off
Angular grids for H and He will be reduced by one unit

Total number of grid points                  ...    28127
Total number of batches                      ...      442
Average number of points per batch           ...       63
Average number of grid points per atom       ...     4688

---------------------
SHARK GRID GENERATION
---------------------

General Integration Accuracy     IntAcc      ... 4.388
Radial Grid Type                 RadialGrid  ... OptM3 with GC (2021)
Angular Grid (max. ang.)         AngularGrid ... 4 (Lebedev-302)
Angular grid pruning method      GridPruning ... 4 (adaptive)
Weight generation scheme         WeightScheme... mBecke (2022)
Basis function cutoff            BFCut       ... 1.0000e-10
Integration weight cutoff        WCut        ... 1.0000e-14
Partially contracted basis set               ... off
Rotationally invariant grid construction     ... off
Angular grids for H and He will be reduced by one unit
Steep s-basis detected: some atoms will have their radial
                        grid points doubled.

Total number of grid points                  ...    46711
Total number of batches                      ...      734
Average number of points per batch           ...       63
Average number of grid points per atom       ...     7785

--------------------
COSX GRID GENERATION
--------------------

GRIDX 1
-------
General Integration Accuracy     IntAcc      ... 3.816
Radial Grid Type                 RadialGrid  ... OptM3 with GC (2021)
Angular Grid (max. ang.)         AngularGrid ... 1 (Lebedev-50)
Angular grid pruning method      GridPruning ... 4 (adaptive)
Weight generation scheme         WeightScheme... mBecke (2022)
Basis function cutoff            BFCut       ... 1.0000e-10
Integration weight cutoff        WCut        ... 1.0000e-14
Partially contracted basis set               ... on
Rotationally invariant grid construction     ... off
Angular grids for H and He will be reduced by one unit

Total number of grid points                  ...     3620
Total number of batches                      ...       32
Average number of points per batch           ...      113
Average number of grid points per atom       ...      603
UseSFitting                                  ... on

GRIDX 2
-------
General Integration Accuracy     IntAcc      ... 4.020
Radial Grid Type                 RadialGrid  ... OptM3 with GC (2021)
Angular Grid (max. ang.)         AngularGrid ... 2 (Lebedev-110)
Angular grid pruning method      GridPruning ... 4 (adaptive)
Weight generation scheme         WeightScheme... mBecke (2022)
Basis function cutoff            BFCut       ... 1.0000e-10
Integration weight cutoff        WCut        ... 1.0000e-14
Partially contracted basis set               ... on
Rotationally invariant grid construction     ... off
Angular grids for H and He will be reduced by one unit

Total number of grid points                  ...     7984
Total number of batches                      ...       66
Average number of points per batch           ...      120
Average number of grid points per atom       ...     1331
UseSFitting                                  ... on

GRIDX 3
-------
General Integration Accuracy     IntAcc      ... 4.338
Radial Grid Type                 RadialGrid  ... OptM3 with GC (2021)
Angular Grid (max. ang.)         AngularGrid ... 3 (Lebedev-194)
Angular grid pruning method      GridPruning ... 4 (adaptive)
Weight generation scheme         WeightScheme... mBecke (2022)
Basis function cutoff            BFCut       ... 1.0000e-10
Integration weight cutoff        WCut        ... 1.0000e-14
Partially contracted basis set               ... on
Rotationally invariant grid construction     ... off
Angular grids for H and He will be reduced by one unit

Total number of grid points                  ...    17644
Total number of batches                      ...      140
Average number of points per batch           ...      126
Average number of grid points per atom       ...     2941
UseSFitting                                  ... on
Initializing property integral containers    ... done (  0.0 sec)

SHARK setup successfully completed in   0.8 seconds

Maximum memory used throughout the entire STARTUP-calculation: 19.5 MB
-------------------------------------------------------------------------------
                                 ORCA GUESS
                   Start orbitals & Density for SCF / CASSCF
-------------------------------------------------------------------------------

------------
SCF SETTINGS
------------
Hamiltonian:
 Density Functional     Method          .... DFT(GTOs)
 Exchange Functional    Exchange        .... B88
   X-Alpha parameter    XAlpha          ....  0.666667
   Becke's b parameter  XBeta           ....  0.004200
 Correlation Functional Correlation     .... LYP
 LDA part of GGA corr.  LDAOpt          .... VWN-5
 Gradients option       PostSCFGGA      .... off
 Hybrid DFT is turned on
   Fraction HF Exchange ScalHFX         ....  0.200000
   Scaling of DF-GGA-X  ScalDFX         ....  0.720000
   Scaling of DF-GGA-C  ScalDFC         ....  0.810000
   Scaling of DF-LDA-C  ScalLDAC        ....  1.000000
   Perturbative correction              ....  0.000000
   NL short-range parameter             ....  4.800000
 RI-approximation to the Coulomb term is turned on
   Number of AuxJ basis functions       .... 180
   RIJ-COSX (HFX calculated with COS-X)).... on


General Settings:
 Integral files         IntName         .... nbo
 Hartree-Fock type      HFTyp           .... RHF
 Total Charge           Charge          ....    0
 Multiplicity           Mult            ....    1
 Number of Electrons    NEL             ....   24
 Basis Dimension        Dim             ....   57
 Nuclear Repulsion      ENuc            ....     70.9231744303 Eh

Convergence Acceleration:
 AO-DIIS                CNVDIIS         .... on
   Start iteration      DIISMaxIt       ....    12
   Startup error        DIISStart       ....  0.200000
   # of expansion vecs  DIISMaxEq       ....     5
   Bias factor          DIISBfac        ....   1.050
   Max. coefficient     DIISMaxC        ....  10.000
 MO-DIIS                CNVKDIIS        .... off
 Trust-Rad. Augm. Hess. CNVTRAH         .... auto
   Auto Start mean grad. ratio tolernc. ....  1.125000
   Auto Start start iteration           ....    50
   Auto Start num. interpolation iter.  ....    10
   Max. Number of Micro iterations      ....    24
   Max. Number of Macro iterations      .... Maxiter - #DIIS iter
   Number of Davidson start vectors     ....     2
   Converg. threshold    (grad. norm)   ....   5.000e-05
   Grad. Scal. Fac. for Micro threshold ....   0.100
   Minimum threshold for Micro iter.    ....   1.000e-02
   NR start threshold (gradient norm)   ....   1.000e-04
   Initial trust radius                 ....   0.400
   Minimum AH scaling param. (alpha)    ....   1.000
   Maximum AH scaling param. (alpha)    .... 1000.000
   Quad. conv. algorithm                .... NR
   White noise on init. David. guess    .... on
   Maximum white noise                  ....   0.010
   Pseudo random numbers                .... off
   Inactive MOs                         .... canonical
   Orbital update algorithm             .... Taylor
   Preconditioner                       .... Diag
   Full preconditioner red. dimension   ....   250
 SOSCF                  CNVSOSCF        .... on
   Start iteration      SOSCFMaxIt      ....   150
   Startup grad/error   SOSCFStart      ....  0.003300
   Hessian update       SOSCFHessUp     .... L-BFGS
 Level Shifting         CNVShift        .... on
   Level shift para.    LevelShift      ....    0.2500
   Turn off err/grad.   ShiftErr        ....    0.0010
 Zerner damping         CNVZerner       .... off
 Static damping         CNVDamp         .... on
   Fraction old density DampFac         ....    0.7000
   Max. Damping (<1)    DampMax         ....    0.9800
   Min. Damping (>=0)   DampMin         ....    0.0000
   Turn off err/grad.   DampErr         ....    0.1000

SCF Procedure:
 Maximum # iterations   MaxIter         ....   125
 SCF integral mode      SCFMode         .... Direct
   Integral package                     .... SHARK and LIBINT hybrid scheme
 Reset frequency        DirectResetFreq ....    20
 Integral Threshold     Thresh          ....  1.000e-10 Eh
 Primitive CutOff       TCut            ....  1.000e-11 Eh

Convergence Tolerance:
 Convergence Check Mode ConvCheckMode   .... Total+1el-Energy
 Convergence forced     ConvForced      .... 0
 Energy Change          TolE            ....  1.000e-06 Eh
 1-El. energy change                    ....  1.000e-03 Eh
 Orbital Gradient       TolG            ....  5.000e-05
 Orbital Rotation angle TolX            ....  5.000e-05
 DIIS Error             TolErr          ....  1.000e-06

------------------------------
INITIAL GUESS: MODEL POTENTIAL
------------------------------
Loading Hartree-Fock densities                     ... done
Calculating cut-offs                               ... done
Initializing the effective Hamiltonian             ... done
Setting up the integral package (SHARK)            ... done
Starting the Coulomb interaction                   ... done (   0.0 sec)
Making the grid                                    ... done (   0.0 sec)
Mapping shells                                     ... done
Starting the XC term evaluation                    ... done (   0.0 sec)
  promolecular density results
     # of electrons  =     23.999040065
     EX              =    -20.784990342
     EC              =     -0.816777380
     EX+EC           =    -21.601767722
Transforming the Hamiltonian                       ... done (   0.0 sec)
Diagonalizing the Hamiltonian                      ... done (   0.0 sec)
Back transforming the eigenvectors                 ... done (   0.0 sec)
Now organizing SCF variables                       ... done
                      ------------------
                      INITIAL GUESS DONE (   0.1 sec)
                      ------------------
             **** ENERGY FILE WAS UPDATED (nbo.en.tmp) ****
Finished Guess after   0.1 sec
Maximum memory used throughout the entire GUESS-calculation: 7.5 MB

-------------------------------------------------------------------------------------------
                                      ORCA LEAN-SCF
                              memory conserving SCF solver
-------------------------------------------------------------------------------------------

----------------------------------------D-I-I-S--------------------------------------------
Iteration    Energy (Eh)           Delta-E    RMSDP     MaxDP     DIISErr   Damp  Time(sec)
-------------------------------------------------------------------------------------------
               ***  Starting incremental Fock matrix formation  ***
    1    -169.6303251068498525     0.00e+00  7.56e-03  9.55e-02  2.63e-01  0.700   0.4
    2    -169.7100469288422460    -7.97e-02  4.67e-03  5.42e-02  1.25e-01  0.700   0.3
                               ***Turning on AO-DIIS***
    3    -169.7360626424720635    -2.60e-02  1.53e-03  1.91e-02  4.70e-02  0.700   0.3
    4    -169.7527822698143609    -1.67e-02  2.08e-03  2.00e-02  1.83e-02  0.000   0.2
    5    -169.7910809302026109    -3.83e-02  6.81e-04  7.27e-03  1.04e-02  0.000   0.2
                              *** Initializing SOSCF ***
---------------------------------------S-O-S-C-F--------------------------------------
Iteration    Energy (Eh)           Delta-E    RMSDP     MaxDP     MaxGrad    Time(sec)
--------------------------------------------------------------------------------------
    6    -169.7913363821479038    -2.55e-04  2.23e-04  2.60e-03  2.04e-03     0.2
               *** Restarting incremental Fock matrix formation ***
    7    -169.7913454643975797    -9.08e-06  1.83e-04  2.14e-03  3.65e-04     0.4
    8    -169.7913469797614425    -1.52e-06  5.31e-05  6.91e-04  3.18e-04     0.3
    9    -169.7913476730157072    -6.93e-07  3.95e-05  3.80e-04  2.00e-04     0.3
                 **** Energy Check signals convergence ****

               *****************************************************
               *                     SUCCESS                       *
               *           SCF CONVERGED AFTER   9 CYCLES          *
               *****************************************************

Recomputing exchange energy using gridx3       ... done (    0.510 sec)
Old exchange energy                            :     -4.216888486 Eh
New exchange energy                            :     -4.216874262 Eh
Exchange energy change after final integration :      0.000014223 Eh
Total energy after final integration           :   -169.791333450 Eh
             **** ENERGY FILE WAS UPDATED (nbo.en.tmp) ****

----------------
TOTAL SCF ENERGY
----------------

Total Energy       :       -169.79133344984641 Eh           -4620.25707 eV

Components:
Nuclear Repulsion  :         70.92317443033279 Eh            1929.91769 eV
Electronic Energy  :       -240.71452210334851 Eh           -6550.17515 eV
One Electron Energy:       -371.42926696252175 Eh          -10107.10419 eV
Two Electron Energy:        130.71474485917324 Eh            3556.92904 eV

Virial components:
Potential Energy   :       -338.64370576455241 Eh           -9214.96371 eV
Kinetic Energy     :        168.85237231470600 Eh            4594.70664 eV
Virial Ratio       :          2.00556084064600

DFT components:
N(Alpha)           :       12.000000341512 electrons
N(Beta)            :       12.000000341512 electrons
N(Total)           :       24.000000683024 electrons
E(X)               :      -16.782783881157 Eh       
E(C)               :       -0.970089139561 Eh       
E(XC)              :      -17.752873020719 Eh       

---------------
SCF CONVERGENCE
---------------

  Last Energy change         ...    6.9325e-07  Tolerance :   1.0000e-06
  Last MAX-Density change    ...    3.8022e-04  Tolerance :   1.0000e-05
  Last RMS-Density change    ...    3.9477e-05  Tolerance :   1.0000e-06
  Last DIIS Error            ...    2.0410e-03  Tolerance :   1.0000e-06
  Last Orbital Gradient      ...    2.0006e-04  Tolerance :   5.0000e-05
  Last Orbital Rotation      ...    2.0247e-04  Tolerance :   5.0000e-05


----------------
ORBITAL ENERGIES
----------------

  NO   OCC          E(Eh)            E(eV) 
   0   2.0000     -19.118923      -520.2523 
   1   2.0000     -14.337517      -390.1437 
   2   2.0000     -10.287026      -279.9242 
   3   2.0000      -1.036651       -28.2087 
   4   2.0000      -0.897093       -24.4111 
   5   2.0000      -0.613693       -16.6994 
   6   2.0000      -0.539051       -14.6683 
   7   2.0000      -0.486416       -13.2361 
   8   2.0000      -0.429269       -11.6810 
   9   2.0000      -0.371678       -10.1139 
  10   2.0000      -0.261365        -7.1121 
  11   2.0000      -0.255244        -6.9456 
  12   0.0000      -0.001708        -0.0465 
  13   0.0000       0.054033         1.4703 
  14   0.0000       0.094224         2.5640 
  15   0.0000       0.128028         3.4838 
  16   0.0000       0.267355         7.2751 
  17   0.0000       0.345197         9.3933 
  18   0.0000       0.468124        12.7383 
  19   0.0000       0.475723        12.9451 
  20   0.0000       0.511282        13.9127 
  21   0.0000       0.532015        14.4769 
  22   0.0000       0.629250        17.1227 
*Only the first 10 virtual orbitals were printed.

                    ********************************
                    * MULLIKEN POPULATION ANALYSIS *
                    ********************************

-----------------------
MULLIKEN ATOMIC CHARGES
-----------------------
   0 C :    0.160559
   1 O :   -0.219502
   2 N :   -0.136014
   3 H :   -0.014951
   4 H :    0.106680
   5 H :    0.103227
Sum of atomic charges:    0.0000000

--------------------------------
MULLIKEN REDUCED ORBITAL CHARGES
--------------------------------
  0 C s       :     3.044742  s :     3.044742
      pz      :     0.854095  p :     2.611503
      px      :     0.876674
      py      :     0.880734
      dz2     :     0.015807  d :     0.183196
      dxz     :     0.028570
      dyz     :     0.020494
      dx2y2   :     0.063043
      dxy     :     0.055281

  1 O s       :     3.745517  s :     3.745517
      pz      :     1.368077  p :     4.455692
      px      :     1.663684
      py      :     1.423931
      dz2     :     0.002748  d :     0.018293
      dxz     :     0.002473
      dyz     :     0.004060
      dx2y2   :     0.003719
      dxy     :     0.005293

  2 N s       :     3.298182  s :     3.298182
      pz      :     1.040745  p :     3.819845
      px      :     1.048538
      py      :     1.730562
      dz2     :     0.003181  d :     0.017987
      dxz     :     0.007683
      dyz     :     0.000356
      dx2y2   :     0.003464
      dxy     :     0.003303

  3 H s       :     0.990174  s :     0.990174
      pz      :     0.005738  p :     0.024777
      px      :     0.005656
      py      :     0.013383

  4 H s       :     0.837224  s :     0.837224
      pz      :     0.025422  p :     0.056095
      px      :     0.014454
      py      :     0.016219

  5 H s       :     0.839852  s :     0.839852
      pz      :     0.025506  p :     0.056921
      px      :     0.014262
      py      :     0.017152



                     *******************************
                     * LOEWDIN POPULATION ANALYSIS *
                     *******************************

----------------------
LOEWDIN ATOMIC CHARGES
----------------------
   0 C :   -0.107172
   1 O :   -0.037435
   2 N :    0.043026
   3 H :   -0.015099
   4 H :    0.058698
   5 H :    0.057982

-------------------------------
LOEWDIN REDUCED ORBITAL CHARGES
-------------------------------
  0 C s       :     2.850964  s :     2.850964
      pz      :     0.847413  p :     2.783797
      px      :     0.966240
      py      :     0.970144
      dz2     :     0.039039  d :     0.472411
      dxz     :     0.060056
      dyz     :     0.053642
      dx2y2   :     0.168142
      dxy     :     0.151532

  1 O s       :     3.503480  s :     3.503480
      pz      :     1.364232  p :     4.502518
      px      :     1.657448
      py      :     1.480838
      dz2     :     0.003870  d :     0.031438
      dxz     :     0.004027
      dyz     :     0.007207
      dx2y2   :     0.006115
      dxy     :     0.010219

  2 N s       :     2.989066  s :     2.989066
      pz      :     1.142494  p :     3.906057
      px      :     1.143518
      py      :     1.620044
      dz2     :     0.013477  d :     0.061852
      dxz     :     0.026812
      dyz     :     0.001463
      dx2y2   :     0.011807
      dxy     :     0.008293

  3 H s       :     0.941209  s :     0.941209
      pz      :     0.017950  p :     0.073890
      px      :     0.017488
      py      :     0.038452

  4 H s       :     0.798434  s :     0.798434
      pz      :     0.058673  p :     0.142868
      px      :     0.034200
      py      :     0.049995

  5 H s       :     0.798038  s :     0.798038
      pz      :     0.059222  p :     0.143980
      px      :     0.033255
      py      :     0.051503



                      *****************************
                      * MAYER POPULATION ANALYSIS *
                      *****************************

  NA   - Mulliken gross atomic population
  ZA   - Total nuclear charge
  QA   - Mulliken gross atomic charge
  VA   - Mayer's total valence
  BVA  - Mayer's bonded valence
  FA   - Mayer's free valence

  ATOM       NA         ZA         QA         VA         BVA        FA
  0 C      5.8394     6.0000     0.1606     4.3556     4.3556     0.0000
  1 O      8.2195     8.0000    -0.2195     2.3227     2.3227    -0.0000
  2 N      7.1360     7.0000    -0.1360     3.2173     3.2173     0.0000
  3 H      1.0150     1.0000    -0.0150     0.9695     0.9695     0.0000
  4 H      0.8933     1.0000     0.1067     1.0217     1.0217     0.0000
  5 H      0.8968     1.0000     0.1032     1.0147     1.0147     0.0000

  Mayer bond orders larger than 0.100000
B(  0-C ,  1-O ) :   2.1786 B(  0-C ,  2-N ) :   1.2211 B(  0-C ,  3-H ) :   0.9188 
B(  2-N ,  4-H ) :   0.9695 B(  2-N ,  5-H ) :   0.9699 

Now starting NBO....

 *********************************** NBO 7.0 ***********************************
             N A T U R A L   A T O M I C   O R B I T A L   A N D
          N A T U R A L   B O N D   O R B I T A L   A N A L Y S I S
 **************************** Suman Saurav (S102030) ***************************
  (c) Copyright 1996-2020 Board of Regents of the University of Wisconsin System
      on behalf of the Theoretical Chemistry Institute.  All rights reserved.

          Cite this program [NBO 7.0.9 (21-May-2020)] as:

          NBO 7.0.  E. D. Glendening, J. K. Badenhoop, A. E. Reed,
          J. E. Carpenter, J. A. Bohmann, C. M. Morales, P. Karafiloglou,
          C. R. Landis, and F. Weinhold, Theoretical Chemistry Institute,
          University of Wisconsin, Madison, WI (2018)

       /NPA    / : Natural Population Analysis
       /NBO    / : Natural Bond Orbital Analysis
       /AONBO  / : Checkpoint the AO to NBO transformation
       /ARCHIVE/ : Write the archive file to lfn47

 Job title: ORCA Job: nbo


 NATURAL POPULATIONS:  Natural atomic orbital occupancies

  NAO Atom No lang   Type(AO)    Occupancy      Energy
 -------------------------------------------------------
   1    C  1  s      Cor( 1s)     1.99998     -10.28686
   2    C  1  s      Val( 2s)     0.87916      -0.11302
   3    C  1  s      Ryd( 3s)     0.01007       0.68169
   4    C  1  px     Val( 2p)     0.81650       0.03835
   5    C  1  px     Ryd( 3p)     0.00966       0.46863
   6    C  1  py     Val( 2p)     0.89071      -0.00784
   7    C  1  py     Ryd( 3p)     0.00806       0.59212
   8    C  1  pz     Val( 2p)     0.80806      -0.08873
   9    C  1  pz     Ryd( 3p)     0.00504       0.49564
  10    C  1  dxy    Ryd( 3d)     0.00309       1.88224
  11    C  1  dxz    Ryd( 3d)     0.00140       1.65654
  12    C  1  dyz    Ryd( 3d)     0.00163       1.68003
  13    C  1  dx2y2  Ryd( 3d)     0.00412       1.87402
  14    C  1  dz2    Ryd( 3d)     0.00139       1.54686

  15    O  2  s      Cor( 1s)     1.99999     -19.11872
  16    O  2  s      Val( 2s)     1.71616      -0.66886
  17    O  2  s      Ryd( 3s)     0.00098       1.94755
  18    O  2  px     Val( 2p)     1.78889      -0.25092
  19    O  2  px     Ryd( 3p)     0.00174       1.11000
  20    O  2  py     Val( 2p)     1.58832      -0.25457
  21    O  2  py     Ryd( 3p)     0.00084       1.05652
  22    O  2  pz     Val( 2p)     1.45905      -0.23784
  23    O  2  pz     Ryd( 3p)     0.00068       1.04651
  24    O  2  dxy    Ryd( 3d)     0.00216       3.00340
  25    O  2  dxz    Ryd( 3d)     0.00102       2.78792
  26    O  2  dyz    Ryd( 3d)     0.00163       2.90380
  27    O  2  dx2y2  Ryd( 3d)     0.00179       2.90993
  28    O  2  dz2    Ryd( 3d)     0.00107       2.78051

  29    N  3  s      Cor( 1s)     1.99998     -14.33738
  30    N  3  s      Val( 2s)     1.35160      -0.46769
  31    N  3  s      Ryd( 3s)     0.00042       1.38515
  32    N  3  px     Val( 2p)     1.33837      -0.21102
  33    N  3  px     Ryd( 3p)     0.00216       0.85312
  34    N  3  py     Val( 2p)     1.80502      -0.24694
  35    N  3  py     Ryd( 3p)     0.00454       0.80421
  36    N  3  pz     Val( 2p)     1.40647      -0.21670
  37    N  3  pz     Ryd( 3p)     0.00091       1.01673
  38    N  3  dxy    Ryd( 3d)     0.00025       2.07537
  39    N  3  dxz    Ryd( 3d)     0.00082       2.47966
  40    N  3  dyz    Ryd( 3d)     0.00021       1.97347
  41    N  3  dx2y2  Ryd( 3d)     0.00131       2.29824
  42    N  3  dz2    Ryd( 3d)     0.00086       2.31846

  43    H  4  s      Val( 1s)     0.87857       0.02272
  44    H  4  s      Ryd( 2s)     0.00637       0.33654
  45    H  4  px     Ryd( 2p)     0.00033       1.79978
  46    H  4  py     Ryd( 2p)     0.00080       1.98348
  47    H  4  pz     Ryd( 2p)     0.00022       1.66346

  48    H  5  s      Val( 1s)     0.59268       0.09584
  49    H  5  s      Ryd( 2s)     0.00288       0.35833
  50    H  5  px     Ryd( 2p)     0.00051       1.87597
  51    H  5  py     Ryd( 2p)     0.00069       1.58289
  52    H  5  pz     Ryd( 2p)     0.00117       2.12548

  53    H  6  s      Val( 1s)     0.59556       0.09208
  54    H  6  s      Ryd( 2s)     0.00161       0.35314
  55    H  6  px     Ryd( 2p)     0.00053       1.85983
  56    H  6  py     Ryd( 2p)     0.00077       1.59654
  57    H  6  pz     Ryd( 2p)     0.00118       2.13811


 Summary of Natural Population Analysis:

                                     Natural Population
             Natural    ---------------------------------------------
  Atom No    Charge        Core      Valence    Rydberg      Total
 --------------------------------------------------------------------
    C  1    0.56112      1.99998     3.39443    0.04446     5.43888
    O  2   -0.56432      1.99999     6.55243    0.01191     8.56432
    N  3   -0.91292      1.99998     5.90146    0.01147     7.91292
    H  4    0.11371      0.00000     0.87857    0.00773     0.88629
    H  5    0.40207      0.00000     0.59268    0.00525     0.59793
    H  6    0.40034      0.00000     0.59556    0.00409     0.59966
 ====================================================================
 * Total *  0.00000      5.99996    17.91513    0.08491    24.00000

                                 Natural Population
 ---------------------------------------------------------
   Core                       5.99996 ( 99.9993% of    6)
   Valence                   17.91513 ( 99.5285% of   18)
   Natural Minimal Basis     23.91509 ( 99.6462% of   24)
   Natural Rydberg Basis      0.08491 (  0.3538% of   24)
 ---------------------------------------------------------

    Atom No         Natural Electron Configuration
 ----------------------------------------------------------------------------
      C  1      [core]2s( 0.88)2p( 2.52)3s( 0.01)3p( 0.02)3d( 0.01)
      O  2      [core]2s( 1.72)2p( 4.84)3d( 0.01)
      N  3      [core]2s( 1.35)2p( 4.55)3p( 0.01)
      H  4            1s( 0.88)2s( 0.01)
      H  5            1s( 0.59)
      H  6            1s( 0.60)


 NATURAL BOND ORBITAL ANALYSIS:

                            Occupancies       Lewis Structure    Low   High
         Max    Occ     -------------------  -----------------   occ   occ
  Cycle  Ctr   Thresh    Lewis   non-Lewis     CR  BD  nC  LP    (L)   (NL)
 ============================================================================
    1     2     1.90    23.02306   0.97694      3   6   0   3     2      2
    2     2     1.86    23.03118   0.96882      3   6   0   3     1      2
    3     2     1.82    23.60832   0.39168      3   6   0   3     0      1
 ----------------------------------------------------------------------------

 Structure accepted: No low occupancy Lewis orbitals

 -------------------------------------------------------
   Core                      5.99996 ( 99.999% of   6)
   Valence Lewis            17.60837 ( 97.824% of  18)
  ==================      =============================
   Total Lewis              23.60832 ( 98.368% of  24)
  -----------------------------------------------------
   Valence non-Lewis         0.34011 (  1.417% of  24)
   Rydberg non-Lewis         0.05156 (  0.215% of  24)
  ==================      =============================
   Total non-Lewis           0.39168 (  1.632% of  24)
 -------------------------------------------------------


     (Occupancy)   Bond orbital / Coefficients / Hybrids
 ------------------ Lewis ------------------------------------------------------
   1. (1.99998) CR ( 1) C  1            s(100.00%)
                                         1.0000  0.0000  0.0000  0.0000  0.0000
                                         0.0000  0.0000  0.0000  0.0000  0.0000
                                         0.0000  0.0000  0.0000  0.0000
   2. (1.99999) CR ( 1) O  2            s(100.00%)
                                         1.0000  0.0000  0.0000  0.0000  0.0000
                                         0.0000  0.0000  0.0000  0.0000  0.0000
                                         0.0000  0.0000  0.0000  0.0000
   3. (1.99998) CR ( 1) N  3            s(100.00%)
                                         1.0000  0.0000  0.0000  0.0000  0.0000
                                         0.0000  0.0000  0.0000  0.0000  0.0000
                                         0.0000  0.0000  0.0000  0.0000
   4. (1.98158) LP ( 1) O  2            s( 58.98%)p 0.69( 40.99%)d 0.00(  0.03%)
                                         0.0000  0.7679 -0.0116 -0.3476  0.0029
                                        -0.4649  0.0036 -0.2698  0.0026 -0.0108
                                        -0.0063 -0.0095  0.0027  0.0055
   5. (1.86352) LP ( 2) O  2            s(  0.02%)p99.99( 99.87%)d 4.67(  0.11%)
                                         0.0000  0.0147 -0.0031  0.8469 -0.0078
                                        -0.4874  0.0051 -0.2093  0.0029  0.0124
                                         0.0065 -0.0110  0.0268 -0.0045
   6. (1.82410) LP ( 1) N  3            s(  0.00%)p 1.00( 99.99%)d 0.00(  0.01%)
                                         0.0000  0.0069 -0.0003 -0.0289  0.0004
                                         0.9803 -0.0363 -0.1913  0.0096 -0.0068
                                         0.0060  0.0004 -0.0010 -0.0005
   7. (1.99777) BD ( 1) C  1- O  2
               ( 32.81%)   0.5728* C  1 s( 29.07%)p 2.43( 70.70%)d 0.01(  0.23%)
                                         0.0000  0.5363  0.0555 -0.3867 -0.0395
                                        -0.7435 -0.0375  0.0011 -0.0416  0.0370
                                         0.0070  0.0077 -0.0228 -0.0183
               ( 67.19%)   0.8197* O  2 s( 36.63%)p 1.72( 63.17%)d 0.01(  0.20%)
                                         0.0000  0.6049  0.0193  0.3577  0.0079
                                         0.3831  0.0114  0.5973  0.0084  0.0273
                                         0.0220  0.0274 -0.0066 -0.0021
   8. (1.99044) BD ( 2) C  1- O  2
               ( 34.04%)   0.5834* C  1 s(  4.55%)p20.90( 95.13%)d 0.07(  0.32%)
                                         0.0000  0.2129  0.0133 -0.1447 -0.0141
                                         0.2280 -0.0375 -0.9354  0.0417 -0.0031
                                         0.0264  0.0348  0.0118  0.0341
               ( 65.96%)   0.8122* O  2 s(  4.37%)p21.82( 95.45%)d 0.04(  0.17%)
                                         0.0000  0.2089  0.0092  0.1800  0.0025
                                         0.6302  0.0088 -0.7244 -0.0054  0.0219
                                        -0.0119 -0.0115 -0.0164 -0.0269
   9. (1.99585) BD ( 1) C  1- N  3
               ( 36.79%)   0.6065* C  1 s( 32.45%)p 2.08( 67.35%)d 0.01(  0.20%)
                                         0.0000  0.5685  0.0353  0.8190  0.0497
                                        -0.0170  0.0044 -0.0021  0.0023  0.0019
                                         0.0001 -0.0029  0.0406 -0.0193
               ( 63.21%)   0.7951* N  3 s( 40.02%)p 1.50( 59.89%)d 0.00(  0.09%)
                                         0.0000  0.6326  0.0054 -0.7730 -0.0131
                                        -0.0304  0.0001 -0.0160  0.0017  0.0025
                                         0.0009  0.0014  0.0289 -0.0083
  10. (1.98738) BD ( 1) C  1- H  4
               ( 57.82%)   0.7604* C  1 s( 34.39%)p 1.91( 65.54%)d 0.00(  0.07%)
                                         0.0000  0.5840 -0.0534 -0.3881 -0.0061
                                         0.6212 -0.0162  0.3441 -0.0126 -0.0155
                                        -0.0059  0.0145 -0.0143  0.0004
               ( 42.18%)   0.6494* H  4 s( 99.87%)p 0.00(  0.13%)
                                         0.9992 -0.0174  0.0171 -0.0288 -0.0131
  11. (1.98404) BD ( 1) N  3- H  5
               ( 70.51%)   0.8397* N  3 s( 29.61%)p 2.38( 70.33%)d 0.00(  0.06%)
                                         0.0000  0.5441 -0.0020  0.4640  0.0243
                                        -0.1241 -0.0009 -0.6869 -0.0116 -0.0031
                                        -0.0147  0.0067  0.0070  0.0159
               ( 29.49%)   0.5431* H  5 s( 99.76%)p 0.00(  0.24%)
                                         0.9988 -0.0065 -0.0249  0.0087  0.0417
  12. (1.98369) BD ( 1) N  3- H  6
               ( 70.30%)   0.8385* N  3 s( 30.24%)p 2.30( 69.70%)d 0.00(  0.06%)
                                         0.0000  0.5499 -0.0003  0.4296  0.0252
                                         0.1454  0.0024  0.7004  0.0126  0.0044
                                         0.0141  0.0093  0.0062  0.0167
               ( 29.70%)   0.5450* H  6 s( 99.76%)p 0.00(  0.24%)
                                         0.9988 -0.0042 -0.0252 -0.0096 -0.0415
 ---------------- non-Lewis ----------------------------------------------------
  13. (0.06397) BD*( 1) C  1- O  2
               ( 67.19%)   0.8197* C  1 s( 29.07%)p 2.43( 70.70%)d 0.01(  0.23%)
                                         0.0000  0.5363  0.0555 -0.3867 -0.0395
                                        -0.7435 -0.0375  0.0011 -0.0416  0.0370
                                         0.0070  0.0077 -0.0228 -0.0183
               ( 32.81%)  -0.5728* O  2 s( 36.63%)p 1.72( 63.17%)d 0.01(  0.20%)
                                         0.0000  0.6049  0.0193  0.3577  0.0079
                                         0.3831  0.0114  0.5973  0.0084  0.0273
                                         0.0220  0.0274 -0.0066 -0.0021
  14. (0.11808) BD*( 2) C  1- O  2
               ( 65.96%)   0.8122* C  1 s(  4.55%)p20.90( 95.13%)d 0.07(  0.32%)
                                         0.0000  0.2129  0.0133 -0.1447 -0.0141
                                         0.2280 -0.0375 -0.9354  0.0417 -0.0031
                                         0.0264  0.0348  0.0118  0.0341
               ( 34.04%)  -0.5834* O  2 s(  4.37%)p21.82( 95.45%)d 0.04(  0.17%)
                                         0.0000  0.2089  0.0092  0.1800  0.0025
                                         0.6302  0.0088 -0.7244 -0.0054  0.0219
                                        -0.0119 -0.0115 -0.0164 -0.0269
  15. (0.06300) BD*( 1) C  1- N  3
               ( 63.21%)   0.7951* C  1 s( 32.45%)p 2.08( 67.35%)d 0.01(  0.20%)
                                         0.0000  0.5685  0.0353  0.8190  0.0497
                                        -0.0170  0.0044 -0.0021  0.0023  0.0019
                                         0.0001 -0.0029  0.0406 -0.0193
               ( 36.79%)  -0.6065* N  3 s( 40.02%)p 1.50( 59.89%)d 0.00(  0.09%)
                                         0.0000  0.6326  0.0054 -0.7730 -0.0131
                                        -0.0304  0.0001 -0.0160  0.0017  0.0025
                                         0.0009  0.0014  0.0289 -0.0083
  16. (0.07125) BD*( 1) C  1- H  4
               ( 42.18%)   0.6494* C  1 s( 34.39%)p 1.91( 65.54%)d 0.00(  0.07%)
                                         0.0000 -0.5840  0.0534  0.3881  0.0061
                                        -0.6212  0.0162 -0.3441  0.0126  0.0155
                                         0.0059 -0.0145  0.0143 -0.0004
               ( 57.82%)  -0.7604* H  4 s( 99.87%)p 0.00(  0.13%)
                                        -0.9992  0.0174 -0.0171  0.0288  0.0131
  17. (0.01264) BD*( 1) N  3- H  5
               ( 29.49%)   0.5431* N  3 s( 29.61%)p 2.38( 70.33%)d 0.00(  0.06%)
                                         0.0000 -0.5441  0.0020 -0.4640 -0.0243
                                         0.1241  0.0009  0.6869  0.0116  0.0031
                                         0.0147 -0.0067 -0.0070 -0.0159
               ( 70.51%)  -0.8397* H  5 s( 99.76%)p 0.00(  0.24%)
                                        -0.9988  0.0065  0.0249 -0.0087 -0.0417
  18. (0.01118) BD*( 1) N  3- H  6
               ( 29.70%)   0.5450* N  3 s( 30.24%)p 2.30( 69.70%)d 0.00(  0.06%)
                                         0.0000 -0.5499  0.0003 -0.4296 -0.0252
                                        -0.1454 -0.0024 -0.7004 -0.0126 -0.0044
                                        -0.0141 -0.0093 -0.0062 -0.0167
               ( 70.30%)  -0.8385* H  6 s( 99.76%)p 0.00(  0.24%)
                                        -0.9988  0.0042  0.0252  0.0096  0.0415
  19. (0.01610) RY ( 1) C  1            s( 10.26%)p 8.24( 84.53%)d 0.51(  5.21%)
                                         0.0000 -0.0317  0.3187  0.0621 -0.6451
                                         0.0558 -0.5650  0.0137 -0.3206  0.0283
                                        -0.1159  0.0060 -0.1943 -0.0031
  20. (0.00951) RY ( 2) C  1            s( 41.37%)p 0.32( 13.29%)d 1.10( 45.34%)
                                         0.0000 -0.0237  0.6428 -0.0586  0.3191
                                         0.0574 -0.1276  0.0149 -0.0885  0.3052
                                         0.0872 -0.2792  0.5009 -0.1543
  21. (0.00370) RY ( 3) C  1            s(  0.14%)p99.99( 17.27%)d99.99( 82.58%)
                                         0.0000 -0.0082  0.0368 -0.0110  0.1916
                                        -0.0344 -0.3580  0.0314 -0.0745 -0.7279
                                         0.2924  0.1407  0.2973  0.3198
  22. (0.00223) RY ( 4) C  1            s(  5.23%)p12.04( 63.00%)d 6.07( 31.77%)
                                         0.0000  0.0044  0.2287  0.0092 -0.3425
                                         0.0023  0.0195  0.0641  0.7128  0.1396
                                         0.5058  0.1457  0.0077  0.1450
  23. (0.00025) RY ( 5) C  1            s( 12.27%)p 2.99( 36.74%)d 4.16( 51.00%)
                                         0.0000 -0.0115  0.3500 -0.0025  0.5230
                                         0.0140 -0.2451  0.0121  0.1828 -0.0183
                                        -0.0932  0.1681 -0.6871  0.0228
  24. (0.00000) RY ( 6) C  1            s(  0.18%)p35.41(  6.45%)d99.99( 93.37%)
  25. (0.00000) RY ( 7) C  1            s(  9.98%)p 2.02( 20.18%)d 7.00( 69.84%)
  26. (0.00000) RY ( 8) C  1            s( 16.47%)p 3.41( 56.12%)d 1.67( 27.42%)
  27. (0.00000) RY ( 9) C  1            s(  3.65%)p 1.01(  3.70%)d25.38( 92.65%)
  28. (0.00209) RY ( 1) O  2            s(  0.00%)p 1.00( 98.75%)d 0.01(  1.25%)
                                         0.0000  0.0001  0.0002  0.0050  0.8432
                                        -0.0039 -0.4193 -0.0004 -0.3173  0.0670
                                         0.0217 -0.0455  0.0715 -0.0198
  29. (0.00059) RY ( 2) O  2            s( 14.97%)p 5.25( 78.59%)d 0.43(  6.44%)
                                         0.0000 -0.0019  0.3869 -0.0038  0.1377
                                         0.0040 -0.3244 -0.0140  0.8133 -0.1310
                                         0.1019  0.0084  0.1886  0.0346
  30. (0.00012) RY ( 3) O  2            s( 19.45%)p 3.72( 72.27%)d 0.43(  8.28%)
                                         0.0000 -0.0175  0.4407 -0.0199  0.3682
                                        -0.0211  0.7639 -0.0042  0.0521  0.2564
                                         0.0622 -0.0126  0.0762 -0.0851
  31. (0.00001) RY ( 4) O  2            s(  0.31%)p10.58(  3.29%)d99.99( 96.40%)
  32. (0.00000) RY ( 5) O  2            s( 48.13%)p 0.73( 34.96%)d 0.35( 16.91%)
  33. (0.00000) RY ( 6) O  2            s( 15.66%)p 0.15(  2.39%)d 5.23( 81.95%)
  34. (0.00000) RY ( 7) O  2            s(  1.33%)p 3.04(  4.04%)d71.21( 94.64%)
  35. (0.00000) RY ( 8) O  2            s(  0.12%)p24.76(  2.95%)d99.99( 96.93%)
  36. (0.00000) RY ( 9) O  2            s(  0.02%)p99.99(  3.29%)d99.99( 96.69%)
  37. (0.00229) RY ( 1) N  3            s(  1.45%)p64.88( 93.86%)d 3.24(  4.69%)
                                         0.0000 -0.0004  0.1203 -0.0010 -0.0148
                                         0.0315  0.9623 -0.0089  0.1063 -0.2068
                                        -0.0247  0.0570 -0.0157 -0.0058
  38. (0.00070) RY ( 2) N  3            s( 42.50%)p 1.09( 46.18%)d 0.27( 11.32%)
                                         0.0000  0.0132  0.6518  0.0175 -0.5232
                                        -0.0071 -0.1146 -0.0049  0.4178  0.1617
                                        -0.0967  0.1190 -0.2471 -0.0498
  39. (0.00042) RY ( 3) N  3            s( 11.47%)p 3.39( 38.92%)d 4.33( 49.61%)
                                         0.0000  0.0010  0.3387  0.0031 -0.1466
                                         0.0027  0.0398 -0.0050 -0.6050  0.0381
                                         0.6818  0.1355 -0.0343  0.1013
  40. (0.00007) RY ( 4) N  3            s( 32.94%)p 1.34( 44.17%)d 0.70( 22.90%)
  41. (0.00002) RY ( 5) N  3            s(  3.10%)p 3.64( 11.26%)d27.64( 85.64%)
  42. (0.00000) RY ( 6) N  3            s(  4.01%)p 3.61( 14.45%)d20.35( 81.54%)
  43. (0.00000) RY ( 7) N  3            s(  0.58%)p16.26(  9.49%)d99.99( 89.93%)
  44. (0.00000) RY ( 8) N  3            s(  2.29%)p10.44( 23.95%)d32.15( 73.76%)
  45. (0.00000) RY ( 9) N  3            s(  1.79%)p 9.96( 17.82%)d44.96( 80.39%)
  46. (0.00668) RY ( 1) H  4            s( 99.43%)p 0.01(  0.57%)
                                         0.0192  0.9970  0.0229  0.0589  0.0410
  47. (0.00011) RY ( 2) H  4            s(  0.13%)p99.99( 99.87%)
                                        -0.0044  0.0356 -0.5450 -0.7049  0.4526
  48. (0.00006) RY ( 3) H  4            s(  0.48%)p99.99( 99.52%)
  49. (0.00004) RY ( 4) H  4            s(  0.09%)p99.99( 99.91%)
  50. (0.00306) RY ( 1) H  5            s( 94.38%)p 0.06(  5.62%)
                                         0.0143  0.9714  0.1109 -0.1920 -0.0840
  51. (0.00061) RY ( 2) H  5            s(  2.50%)p38.97( 97.50%)
                                         0.0055  0.1581  0.0340  0.9448 -0.2850
  52. (0.00018) RY ( 3) H  5            s(  0.02%)p99.99( 99.98%)
                                         0.0049  0.0146 -0.8096 -0.1449 -0.5686
  53. (0.00003) RY ( 4) H  5            s(  3.34%)p28.94( 96.66%)
  54. (0.00174) RY ( 1) H  6            s( 91.83%)p 0.09(  8.17%)
                                         0.0145  0.9582  0.1148  0.2263  0.1316
  55. (0.00072) RY ( 2) H  6            s(  3.39%)p28.47( 96.61%)
                                         0.0033  0.1842  0.0124 -0.9444  0.2720
  56. (0.00020) RY ( 3) H  6            s(  0.01%)p 1.00( 99.99%)
                                        -0.0030  0.0089  0.8285 -0.1433 -0.5413
  57. (0.00002) RY ( 4) H  6            s(  5.01%)p18.95( 94.99%)


 NHO DIRECTIONALITY AND BOND BENDING (deviation from line of nuclear centers at
                                      the position of maximum hybrid amplitude)

         [Thresholds for printing:  angular deviation  >  1.0 degree]
                                    p- or d-character  > 25.0%
                                    orbital occupancy  >  0.10e

                        Line of Centers        Hybrid 1             Hybrid 2
                        ---------------  -------------------  ------------------
           NBO            Theta   Phi    Theta   Phi    Dev   Theta   Phi    Dev
 ===============================================================================
   4. LP ( 1) O  2          --     --    115.2  233.0   --      --     --    --
   5. LP ( 2) O  2          --     --    101.7  330.9   --      --     --    --
   6. LP ( 1) N  3          --     --    100.4   91.7   --      --     --    --
   7. BD ( 1) C  1- O  2  113.1  234.8    91.6  242.4  22.7    44.8   48.5  22.6
   8. BD ( 2) C  1- O  2  113.1  234.8   165.6  141.8  68.4   134.1   72.4  69.1
   9. BD ( 1) C  1- N  3   88.6    2.7    89.9  359.6   3.4     --     --    --
  10. BD ( 1) C  1- H  4   65.0  117.5    64.8  120.7   3.0     --     --    --
  11. BD ( 1) N  3- H  5  147.2  342.5   145.6  344.4   1.9     --     --    --
  12. BD ( 1) N  3- H  6   32.2   22.7    32.6   19.6   1.7     --     --    --


 SECOND ORDER PERTURBATION THEORY ANALYSIS OF FOCK MATRIX IN NBO BASIS

     Threshold for printing:   0.50 kcal/mol
                                                          E(2) E(NL)-E(L) F(L,NL)
      Donor (L) NBO              Acceptor (NL) NBO      kcal/mol   a.u.    a.u.
 ===============================================================================

 within unit  1
    4. LP ( 1) O  2            15. BD*( 1) C  1- N  3      0.88    1.03   0.027
    4. LP ( 1) O  2            16. BD*( 1) C  1- H  4      1.03    0.96   0.028
    4. LP ( 1) O  2            19. RY ( 1) C  1            7.42    1.10   0.081
    5. LP ( 2) O  2            15. BD*( 1) C  1- N  3     24.10    0.73   0.118
    5. LP ( 2) O  2            16. BD*( 1) C  1- H  4     21.60    0.66   0.106
    5. LP ( 2) O  2            20. RY ( 2) C  1            3.39    1.50   0.064
    5. LP ( 2) O  2            23. RY ( 5) C  1            0.95    1.46   0.033
    5. LP ( 2) O  2            33. RY ( 6) O  2            0.62    3.01   0.039
    6. LP ( 1) N  3            13. BD*( 1) C  1- O  2     15.84    0.80   0.100
    6. LP ( 1) N  3            14. BD*( 2) C  1- O  2      7.31    0.34   0.045
    6. LP ( 1) N  3            16. BD*( 1) C  1- H  4      5.54    0.66   0.054
    6. LP ( 1) N  3            21. RY ( 3) C  1            1.33    1.73   0.043
    6. LP ( 1) N  3            51. RY ( 2) H  5            1.12    1.80   0.040
    6. LP ( 1) N  3            55. RY ( 2) H  6            1.23    1.78   0.042
    7. BD ( 1) C  1- O  2      37. RY ( 1) N  3            0.68    1.70   0.030
    8. BD ( 2) C  1- O  2      17. BD*( 1) N  3- H  5      0.84    0.86   0.024
    8. BD ( 2) C  1- O  2      18. BD*( 1) N  3- H  6      2.59    0.86   0.042
    9. BD ( 1) C  1- N  3      28. RY ( 1) O  2            0.73    1.88   0.033
   10. BD ( 1) C  1- H  4      17. BD*( 1) N  3- H  5      2.92    0.94   0.047
   10. BD ( 1) C  1- H  4      28. RY ( 1) O  2            1.14    1.65   0.039
   10. BD ( 1) C  1- H  4      37. RY ( 1) N  3            0.92    1.38   0.032
   11. BD ( 1) N  3- H  5      14. BD*( 2) C  1- O  2      3.33    0.70   0.043
   11. BD ( 1) N  3- H  5      16. BD*( 1) C  1- H  4      1.40    1.03   0.034
   11. BD ( 1) N  3- H  5      22. RY ( 4) C  1            0.65    1.57   0.028
   12. BD ( 1) N  3- H  6      13. BD*( 1) C  1- O  2      0.66    1.17   0.025
   12. BD ( 1) N  3- H  6      14. BD*( 2) C  1- O  2      4.86    0.71   0.053
   12. BD ( 1) N  3- H  6      22. RY ( 4) C  1            1.02    1.57   0.036


 NATURAL BOND ORBITALS (Summary):

                                                     Principal Delocalizations
           NBO                 Occupancy    Energy   (geminal,vicinal,remote)
 ===============================================================================
 Molecular unit  1  (CH3NO)
 ------ Lewis --------------------------------------
    1. CR ( 1) C  1             1.99998   -10.28686
    2. CR ( 1) O  2             1.99999   -19.11872
    3. CR ( 1) N  3             1.99998   -14.33738
    4. LP ( 1) O  2             1.98158    -0.54575  19(v),16(v),15(v)
    5. LP ( 2) O  2             1.86352    -0.24413  15(v),16(v),20(v),23(v)
                                                     33(g)
    6. LP ( 1) N  3             1.82410    -0.25085  13(v),14(v),16(v),21(v)
                                                     55(v),51(v)
    7. BD ( 1) C  1- O  2       1.99777    -0.83109  37(v)
    8. BD ( 2) C  1- O  2       1.99044    -0.43025  18(v),17(v)
    9. BD ( 1) C  1- N  3       1.99585    -0.73214  28(v)
   10. BD ( 1) C  1- H  4       1.98738    -0.50740  17(v),28(v),37(v)
   11. BD ( 1) N  3- H  5       1.98404    -0.61342  14(v),16(v),22(v)
   12. BD ( 1) N  3- H  6       1.98369    -0.62094  14(v),22(v),13(v)
 ------ non-Lewis ----------------------------------
   13. BD*( 1) C  1- O  2       0.06397     0.54810
   14. BD*( 2) C  1- O  2       0.11808     0.09144
   15. BD*( 1) C  1- N  3       0.06300     0.48523
   16. BD*( 1) C  1- H  4       0.07125     0.41261
   17. BD*( 1) N  3- H  5       0.01264     0.42978
   18. BD*( 1) N  3- H  6       0.01118     0.43079
   19. RY ( 1) C  1             0.01610     0.55488
   20. RY ( 2) C  1             0.00951     1.25115
   21. RY ( 3) C  1             0.00370     1.48240
   22. RY ( 4) C  1             0.00223     0.95221
   23. RY ( 5) C  1             0.00025     1.21370
   24. RY ( 6) C  1             0.00000     1.64997
   25. RY ( 7) C  1             0.00000     1.45739
   26. RY ( 8) C  1             0.00000     0.90987
   27. RY ( 9) C  1             0.00000     1.34779
   28. RY ( 1) O  2             0.00209     1.14684
   29. RY ( 2) O  2             0.00059     1.31032
   30. RY ( 3) O  2             0.00012     1.33517
   31. RY ( 4) O  2             0.00001     3.13981
   32. RY ( 5) O  2             0.00000     1.63692
   33. RY ( 6) O  2             0.00000     2.76794
   34. RY ( 7) O  2             0.00000     2.77522
   35. RY ( 8) O  2             0.00000     2.80363
   36. RY ( 9) O  2             0.00000     2.62268
   37. RY ( 1) N  3             0.00229     0.87274
   38. RY ( 2) N  3             0.00070     1.41432
   39. RY ( 3) N  3             0.00042     1.90897
   40. RY ( 4) N  3             0.00007     1.27684
   41. RY ( 5) N  3             0.00002     1.95655
   42. RY ( 6) N  3             0.00000     2.07695
   43. RY ( 7) N  3             0.00000     2.07628
   44. RY ( 8) N  3             0.00000     1.78037
   45. RY ( 9) N  3             0.00000     1.83188
   46. RY ( 1) H  4             0.00668     0.34979
   47. RY ( 2) H  4             0.00011     1.63662
   48. RY ( 3) H  4             0.00006     1.83587
   49. RY ( 4) H  4             0.00004     1.94507
   50. RY ( 1) H  5             0.00306     0.48465
   51. RY ( 2) H  5             0.00061     1.54427
   52. RY ( 3) H  5             0.00018     1.71800
   53. RY ( 4) H  5             0.00003     2.17267
   54. RY ( 1) H  6             0.00174     0.54291
   55. RY ( 2) H  6             0.00072     1.53002
   56. RY ( 3) H  6             0.00020     1.71511
   57. RY ( 4) H  6             0.00002     2.13702
          -------------------------------
                 Total Lewis   23.60832  ( 98.3680%)
           Valence non-Lewis    0.34011  (  1.4171%)
           Rydberg non-Lewis    0.05156  (  0.2148%)
          -------------------------------
               Total unit  1   24.00000  (100.0000%)
              Charge unit  1    0.00000

 $CHOOSE
   LONE 2 2 3 1 END
   BOND D 1 2 S 1 3 S 1 4 S 3 5 S 3 6 END
 $END

 NBO analysis completed in 0.06 CPU seconds (0 wall seconds)
 Maximum scratch memory used by NBO was 314673 words (2.40 MB)
Stopping NBO...Storing NBOs: nbo.nbo

                                *** returned from  NBO  program ***

-------
TIMINGS
-------

Total SCF time: 0 days 0 hours 0 min 3 sec 

Total time                  ....       3.360 sec
Sum of individual times     ....       3.349 sec  ( 99.7%)

SCF preparation             ....       0.058 sec  (  1.7%)
Fock matrix formation       ....       3.200 sec  ( 95.2%)
  Startup                   ....       0.000 sec  (  0.0% of F)
  Split-RI-J                ....       0.161 sec  (  5.0% of F)
  Chain of spheres X        ....       2.040 sec  ( 63.7% of F)
  XC integration            ....       0.990 sec  ( 30.9% of F)
    XC Preparation          ....       0.000 sec  (  0.0% of XC)
    Basis function eval.    ....       0.478 sec  ( 48.3% of XC)
    Density eval.           ....       0.145 sec  ( 14.6% of XC)
    XC-Functional eval.     ....       0.158 sec  ( 16.0% of XC)
    XC-Potential eval.      ....       0.166 sec  ( 16.8% of XC)
Diagonalization             ....       0.000 sec  (  0.0%)
Density matrix formation    ....       0.004 sec  (  0.1%)
Total Energy calculation    ....       0.000 sec  (  0.0%)
Population analysis         ....       0.074 sec  (  2.2%)
Orbital Transformation      ....       0.004 sec  (  0.1%)
Orbital Orthonormalization  ....       0.000 sec  (  0.0%)
DIIS solution               ....       0.006 sec  (  0.2%)
SOSCF solution              ....       0.004 sec  (  0.1%)
Finished LeanSCF after   3.4 sec

Maximum memory used throughout the entire LEANSCF-calculation: 8.1 MB

-------------------------   --------------------
FINAL SINGLE POINT ENERGY      -169.791333449846
-------------------------   --------------------


------------------------------------------------------------------------------
                              ORCA PROPERTY CALCULATIONS
------------------------------------------------------------------------------

GBWName                                 ... nbo.gbw
Number of atoms                         ...      6
Number of basis functions               ...     75
Max core memory                         ...   1024 MB

Electric properties:
Dipole moment                           ... YES
Quadrupole moment                       ...  NO
Static polarizability (Dipole/Dipole)   ...  NO
Static polarizability (Dipole/Quad.)    ...  NO
Static polarizability (Quad./Quad.)     ...  NO
Static polarizability (Velocity)        ...  NO

Atomic electric properties:
Dipole moment                           ...  NO
Quadrupole moment                       ...  NO
Static polarizability                   ...  NO

Choice of electric origin               ... Center of mass
Position of electric origin             ...     2.374539    -0.797993    -0.282159

General magnetic properties:
Magnetizability                         ...  NO

EPR properties:
g-Tensor (aka g-matrix)                 ...  NO
Zero-Field splitting spin-orbit         ...  NO
Zero-field splitting spin-spin          ...  NO
Hyperfine couplings                     ...  NO (   0 nuclei)
Quadrupole couplings                    ...  NO (   0 nuclei)
Contact density                         ...  NO (   0 nuclei)

NMR properties:
Chemical shifts                         ...  NO (   0 nuclei)
Spin-rotation constants                 ...  NO (   0 nuclei)
Spin-spin couplings                     ...  NO (   0 nuclei,    0 pairs)

Choice of magnetic origin               ... GIAO
Position of magnetic origin             ...     0.000000     0.000000     0.000000

Properties with geometric perturbations:
SCF Hessian                             ...  NO
IR spectrum                             ...  NO
VCD spectrum                            ...  NO
X-ray spectroscopy properties:
SCF XES/XAS/RIXS spectra                ...  NO


-------------
DIPOLE MOMENT
-------------

Method             : SCF
Type of density    : Electron Density
Multiplicity       :   1
Irrep              :   0
Energy             :  -169.7913334498464053 Eh
Relativity type    : 
Basis              : AO
                                X                 Y                 Z
Electronic contribution:     -1.257707069      -1.063460061      -0.547663152
Nuclear contribution   :      2.311593731       1.786704393       0.918938480
                        -----------------------------------------
Total Dipole Moment    :      1.053886662       0.723244332       0.371275328
                        -----------------------------------------
Magnitude (a.u.)       :      1.331016465
Magnitude (Debye)      :      3.383174988



--------------------
Rotational spectrum 
--------------------
 
Rotational constants in cm-1:             2.380178             0.370767             0.331060 
Rotational constants in MHz :         71355.932324         11115.317345          9924.930214 

Dipole components along the rotational axes: 
x,y,z [a.u.] :     1.309018    -0.236559    -0.046016 
x,y,z [Debye]:     3.327258    -0.601286    -0.116963 

 

Dipole moment calculation done in   0.0 sec 

Maximum memory used throughout the entire PROP-calculation: 4.7 MB

--------------------------------
SUGGESTED CITATIONS FOR THIS RUN
--------------------------------

Below you find a list of papers that are relevant to this ORCA run
We neither can nor want to force you to cite these papers, but we appreciate if you do
You receive ORCA, which is the product of decades of hard work by many enthusiastic individuals, for free
The only thing we kindly ask in return is that you cite our papers,
We deeply appreciate it, if you show your appreciation for ORCA by not just citing the generic ORCA reference.

Please note that relegating all ORCA citations to the supporting information does *not* help us.
SI sections are not indexed - citations you put there will not count into any citation statistics
But we need these citations in order to attract the funding resources that allow us to do what we are doing

Therefore, if you are a happy ORCA user, please consider citing a few of the papers listed below in the main body of your paper

In addition to the list printed below, the program has created the file nbo.bibtex that contains the list in bibtex format
You can import this file easily into all common literature databanks and citation aid programs


List of essential papers. We consider these as the minimum necessary citations

  1. Neese,F.
     Software update: the ORCA program system, version 5.0
     WIRES Comput. Molec. Sci., 2022 12(1)e1606
     doi.org/10.1002/wcms.1606

List of papers to cite with high priority. The work reported in these papers was absolutely
necessary for this run to complete.
Our perspective: the developers of density functionals and basis sets usually get cited in chemistry papers
Good! But without the algorithms to do something with them, the functionals or basis sets would not do anything.
Hence, in our opinion, the algorithm design and method developments papers are equally worthy of getting cited

  1. Neese,F.
     An improvement of the resolution of the identity approximation for the formation of the Coulomb matrix
     J. Comp. Chem., 2003 24(14)1740-1747
     doi.org/10.1002/jcc.10318
  2. Neese,F.; Wennmohs,F.; Hansen,A.; Becker,U.
     Efficient, approximate and parallel Hartree-Fock and hybrid DFT calculations. A 'chain-of-spheres' algorithm for the Hartree-Fock exchange
     Chem. Phys., 2009 356(1-3)98-109
     doi.org/10.1016/j.chemphys.2008.10.036
  3. Helmich-Paris,B.; de Souza,B.; Neese,F.; Izsák,R.
     An improved chain of spheres for exchange algorithm
     J. Chem. Phys., 2021 155 104109
     doi.org/doi: 10.1063/5.0058766.
  4. Neese,F.
     The SHARK Integral Generation and Digestion System
     J. Comp. Chem., 2022  1-16
     doi.org/10.1002/jcc.26942

List of suggested additional citations. These are papers that are important in the 'surrounding' of 
of this run, or papers that preceded the highly important papers. If you like your results we are grateful for a citation.

  1. Izsak,R.; Neese,F.
     An overlap fitted chain of spheres exchange method
     J. Chem. Phys., 2011 135 144105
     doi.org/10.1063/1.3646921
  2. Izsak,R.; Hansen,A.; Neese,F.
     The resolution of identity and chain of spheres approximations for the LPNO-CCSD singles Fock term
     Molec. Phys., 2012 110 2413-2417
     doi.org/10.1080/00268976.2012.687466
  3. Neese,F.
     The ORCA program system
     WIRES Comput. Molec. Sci., 2012 2(1)73-78
     doi.org/10.1002/wcms.81
  4. Izsak,R.; Neese,F.; Klopper,W.
     Robust fitting techniques in the chain of spheres approximation to the Fock exchange: The role of the complementary space
     J. Chem. Phys., 2013 139 
     doi.org/10.1063/1.4819264
  5. Neese,F.
     Software update: the ORCA program system, version 4.0
     WIRES Comput. Molec. Sci., 2018 8(1)1-6
     doi.org/10.1002/wcms.1327
  6. Neese,F.; Wennmohs,F.; Becker,U.; Riplinger,C.
     The ORCA quantum chemistry program package
     J. Chem. Phys., 2020 152 Art. No. L224108
     doi.org/10.1063/5.0004608

List of optional additional citations

  1. Neese,F.
     Approximate second-order SCF convergence for spin unrestricted wavefunctions
     Chem. Phys. Lett., 2000 325(1-3)93-98
     doi.org/10.1016/s0009-2614(00)00662-x

Timings for individual modules:

Sum of individual times          ...        4.438 sec (=   0.074 min)
Startup calculation              ...        0.870 sec (=   0.014 min)  19.6 %
SCF iterations                   ...        3.513 sec (=   0.059 min)  79.2 %
Property calculations            ...        0.055 sec (=   0.001 min)   1.2 %
                             ****ORCA TERMINATED NORMALLY****
TOTAL RUN TIME: 0 days 0 hours 0 minutes 4 seconds 508 msec
