
                                 *****************
                                 * O   R   C   A *
                                 *****************

                                            #,                                       
                                            ###                                      
                                            ####                                     
                                            #####                                    
                                            ######                                   
                                           ########,                                 
                                     ,,################,,,,,                         
                               ,,#################################,,                 
                          ,,##########################################,,             
                       ,#########################################, ''#####,          
                    ,#############################################,,   '####,        
                  ,##################################################,,,,####,       
                ,###########''''           ''''###############################       
              ,#####''   ,,,,##########,,,,          '''####'''          '####       
            ,##' ,,,,###########################,,,                        '##       
           ' ,,###''''                  '''############,,,                           
         ,,##''                                '''############,,,,        ,,,,,,###''
      ,#''                                            '''#######################'''  
     '                                                          ''''####''''         
             ,#######,   #######,   ,#######,      ##                                
            ,#'     '#,  ##    ##  ,#'     '#,    #''#        ,####,   ,####,        
            ##       ##  ##   ,#'  ##            #'  '#       #'       #'  '#        
            ##       ##  #######   ##           ,######,      #####,   #    #        
            '#,     ,#'  ##    ##  '#,     ,#' ,#      #,     #,   #   #,  ,#        
             '#######'   ##     ##  '#######'  #'      '#     '####' # '####'        



                #########################################################
                #                        -***-                          #
                #          Department of theory and spectroscopy        #
                #                                                       #
                #                      Frank Neese                      #
                #                                                       #
                #     Directorship, Architecture, Infrastructure        #
                #                    SHARK, DRIVERS                     #
                #        Core code/Algorithms in most modules           #
                #                                                       #
                #        Max Planck Institute fuer Kohlenforschung      #
                #                Kaiser Wilhelm Platz 1                 #
                #                 D-45470 Muelheim/Ruhr                 #
                #                      Germany                          #
                #                                                       #
                #                  All rights reserved                  #
                #                        -***-                          #
                #########################################################


                         Program Version 6.0.1  -  RELEASE   -


 With contributions from (in alphabetic order):
[Max-Planck-Institut fuer Kohlenforschung]                               
  Daniel Aravena         : Magnetic Suceptibility                        
  Michael Atanasov       : Ab Initio Ligand Field Theory (pilot matlab implementation)
  Alexander A. Auer      : GIAO ZORA, VPT2 properties, NMR spectrum      
  Ute Becker             : All parallelization in ORCA, NUMFREQ, NUMCALC 
  Giovanni Bistoni       : ED, misc. LED, open-shell LED, HFLD           
  Martin Brehm           : Molecular dynamics                            
  Dmytro Bykov           : pre 5.0 version of the SCF Hessian            
  Marcos Casanova-Páez   : Triplet and SCS-CIS(D). UHF-(DLPNO)-IP/EA/STEOM-CCSD. UHF-CVS-IP/STEOM-CCSD   
  Vijay G. Chilkuri      : MRCI spin determinant printing, contributions to CSF-ICE 
  Pauline Colinet        : FMM embedding                                 
  Dipayan Datta          : RHF DLPNO-CCSD density                        
  Achintya Kumar Dutta   : EOM-CC, STEOM-CC                              
  Nicolas Foglia         : Exact transition moments, OPA infrastructure, MCD improvements    
  Dmitry Ganyushin       : Spin-Orbit,Spin-Spin,Magnetic field MRCI      
  Miquel Garcia-Rates    : C-PCM and meta-GGA Hessian, CCSD/C-PCM, Gaussian charge scheme 
  Tiago L. C. Gouveia    : GS-ROHF, GS-ROCIS                             
  Yang Guo               : DLPNO-NEVPT2, F12-NEVPT2, CIM, IAO-localization        
  Andreas Hansen         : Spin unrestricted coupled pair/coupled cluster methods 
  Ingolf Harden          : AUTO-CI MPn and infrastructure                
  Benjamin Helmich-Paris : MC-RPA, TRAH-(SCF,CASSCF), AVAS, COSX integrals, SCF dyn. polar. 
  Lee Huntington         : MR-EOM, pCC                                   
  Robert Izsak           : Overlap fitted RIJCOSX, COSX-SCS-MP3, EOM     
  Riya Kayal             : Wick's Theorem for AUTO-CI, AUTO-CI UHF-CCSDT 
  Emily Kempfer          : AUTO-CI, RHF CISDT and CCSDT                  
  Christian Kollmar      : KDIIS, OOCD, Brueckner-CCSD(T), CCSD density, CASPT2, CASPT2-K, improved NEVPT2 
  Axel Koslowski         : Symmetry handling                             
  Simone Kossmann        : meta-GGA functionals, TD-DFT gradient, OOMP2, (MP2 Hessian; deprecated post 5.0) 
  Lucas Lang             : DCDCAS                                        
  Marvin Lechner         : AUTO-CI (C++ implementation), FIC-MRCC        
  Spencer Leger          : CASSCF response                               
  Dagmar Lenk            : GEPOL surface, SMD, ORCA-2-JSON               
  Dimitrios Liakos       : Extrapolation schemes; Compound Job, initial MDCI parallelization 
  Dimitrios Manganas     : Further ROCIS development; embedding schemes. LFT, Crystal Embedding 
  Dimitrios Pantazis     : SARC Basis sets                               
  Anastasios Papadopoulos: AUTO-CI, single reference methods and gradients 
  Taras Petrenko         : pre 6.0 DFT Hessian and TD-DFT gradient, (ASA, deprecated), ECA, 1-Electron XAS/XES, NRVS 
  Peter Pinski           : DLPNO-MP2, DLPNO-MP2 Gradient                 
  Christoph Reimann      : Effective Core Potentials                     
  Marius Retegan         : Local ZFS, SOC                                
  Christoph Riplinger    : Optimizer, TS searches, QM/MM, DLPNO-CCSD(T), (RO)-DLPNO pert. Triples 
  Michael Roemelt        : Original ROCIS implementation                 
  Masaaki Saitow         : Open-shell DLPNO-CCSD energy and density      
  Barbara Sandhoefer     : DKH picture change effects                    
  Kantharuban Sivalingam : CASSCF convergence/infrastructure, NEVPT2 and variants, FIC-MRCI 
  Bernardo de Souza      : ESD, SOC TD-DFT                               
  Georgi L. Stoychev     : AutoAux, RI-MP2 NMR, DLPNO-MP2 response, X2C  
  Van Anh Tran           : RI-MP2 g-tensors                              
  Willem Van den Heuvel  : Paramagnetic NMR                              
  Zikuan Wang            : NOTCH, Electric field optimization            
  Frank Wennmohs         : Technical directorship and infrastructure     
  Hang Xu                : AUTO-CI-Response properties                   
                                                                         
[FACCTs GmbH]                                                            
  Markus Bursch, Miquel Garcia-Rates, Christoph Riplinger, Bernardo de Souza, Georgi L. Stoychev 
                                                                 
  APM, Basis sets (HGBS, AHGBS, def-TZVP (Ac-Lr), def2-XVPD (La-Lu)), CI-OPT, improved COSX, DLPNO-Multilevel,           
  DOCKER, DRACO, updates on ESD, GOAT, IRC, LR-CPCM, MBIS, meta-GGA TD-DFT gradient, ML-optimized integration grids, 
  MM, NACMEs, nearIR, NEB, NEB-TS, NL-DFT gradient (VV10), 2- and 3-layer-ONIOM, interface openCOSMO-RS, QMMM,   
  Crystal-QMMM, SF, symmetry and pop. for TD-DFT, r2SCAN hybrids, SOLVATOR                                   
                                                                         
[Other institutions]                                                     
  V. Asgeirsson          : NEB                                           
  Christoph Bannwarth    : sTDA-DFT, sTD-DFT, PBEh-3c, B97-3c, D3        
  Sebastian Ehlert       : rSCAN, r2SCAN, r2SCAN-3c, D4, dhf basis sets  
  Marvin Friede          : D4 for Fr, Ra, Ac-Lr                          
  Lars Goerigk           : TD-DFT with DH, B97 family of functionals     
  Stefan Grimme          : VdW corrections, initial TS optimization, DFT functionals, gCP, sTDA/sTD-DF 
  Waldemar Hujo          : DFT-NL                                        
  H. Jonsson             : NEB                                           
  Holger Kruse           : gCP                                           
  Marcel Mueller         : wB97X-3c, vDZP basis set                      
  Hagen Neugebauer       : wr2SCAN                                       
  Tobias Risthaus        : range-separated hybrid DFT                    
  Lukas Wittmann         : regularized MP2, r2SCAN double-hybrids, wr2SCAN        
                                                                         
We gratefully acknowledge several colleagues who have allowed us to      
interface, adapt or use parts of their codes:                            
  Ed Valeev, F. Pavosevic, A. Kumar             : LibInt (2-el integral package), F12 methods 
  Garnet Chan, S. Sharma, J. Yang, R. Olivares  : DMRG                   
  Ulf Ekstrom                                   : XCFun DFT Library      
  Mihaly Kallay                                 : mrcc  (arbitrary order and MRCC methods)
  Frank Weinhold                                : gennbo (NPA and NBO analysis)           
  Simon Mueller                                 : openCOSMO-RS                            
  Christopher J. Cramer and Donald G. Truhlar   : smd solvation model                     
  S Lehtola, MJT Oliveira, MAL Marques          : LibXC Library                           
  Liviu Ungur et al                             : ANISO software                          


 Your calculation uses the libint2 library for the computation of 2-el integrals
 For citations please refer to: http://libint.valeyev.net

 Your ORCA version has been built with support for libXC version: 6.2.2
 For citations please refer to: https://libxc.gitlab.io

 This ORCA versions uses:
   CBLAS   interface :  Fast vector & matrix operations
   LAPACKE interface :  Fast linear algebra routines
   SCALAPACK package :  Parallel linear algebra routines
   Shared memory     :  Shared parallel matrices
   BLAS/LAPACK       :  OpenBLAS 0.3.27  USE64BITINT DYNAMIC_ARCH NO_AFFINITY Haswell SINGLE_THREADED
        Core in use  :  Haswell
   Copyright (c) 2011-2014, The OpenBLAS Project




***************************************
The coordinates will be read from file: dihedral.xyz
***************************************


================================================================================

----- Orbital basis set information -----
Your calculation utilizes the basis: cc-pVDZ 
       H, B-Ne : Obtained from the ccRepo (grant-hill.group.shef.ac.uk/ccrepo) Feb. 2017
                 T. H. Dunning, Jr., J. Chem. Phys. 90, 1007 (1989)
            He : Obtained from the ccRepo (grant-hill.group.shef.ac.uk/ccrepo) Feb. 2017
                 D. E. Woon, T. H. Dunning, Jr., J. Chem. Phys. 100, 2975 (1994)
  Li-Be, Na-Mg : Obtained from the ccRepo (grant-hill.group.shef.ac.uk/ccrepo) Feb. 2017
                 B. P. Prascher, D. E. Woon, K. A. Peterson, T. H. Dunning, Jr., A. K. Wilson, Theor. Chem. Acc. 128, 69 (2011)
         Al-Ar : Obtained from the ccRepo (grant-hill.group.shef.ac.uk/ccrepo) Feb. 2017
                 D. E. Woon, T. H. Dunning, Jr., J. Chem. Phys. 98, 1358 (1993)
            Ca : Obtained from the Peterson Research Group Website (tyr0.chem.wsu.edu/~kipeters) Feb. 2017
                 J. Koput, K. A. Peterson, J. Phys. Chem. 106, 9595 (2002)
         Sc-Zn : Obtained from the ccRepo (grant-hill.group.shef.ac.uk/ccrepo) Feb. 2017
                 N. B. Balabanov, K. A. Peterson, J. Chem. Phys. 123, 064107 (2005)
                 N. B. Balabanov, K. A. Peterson, J. Chem. Phys. 125, 074110 (2006)
         Ga-Kr : Obtained from the ccRepo (grant-hill.group.shef.ac.uk/ccrepo) Feb. 2017
                 A. K. Wilson, D. E. Woon, K. A. Peterson, T. H. Dunning, Jr., J. Chem. Phys. 110, 7667 (1999)

----- AuxJ basis set information -----
Your calculation utilizes the auxiliary basis: def2/J
   F. Weigend, Phys. Chem. Chem. Phys. 8, 1057 (2006).

================================================================================
                                        WARNINGS
                       Please study these warnings very carefully!
================================================================================


================================================================================
                                       INPUT FILE
================================================================================
NAME = nbo.com
|  1> ! B3LYP cc-pVDZ def2/J RIJCOSX NBO
|  2> 
|  3> * xyzfile 0 1 dihedral.xyz
|  4> 
|  5>                          ****END OF INPUT****
================================================================================

                       ****************************
                       * Single Point Calculation *
                       ****************************

---------------------------------
CARTESIAN COORDINATES (ANGSTROEM)
---------------------------------
  C      0.988460   -0.141873   -0.002458
  O      0.345507   -1.054737   -0.479810
  N      2.349165   -0.077949    0.031473
  H      0.520676    0.758318    0.469698
  H      2.843609    0.356325   -0.740843
  H      2.876460   -0.453549    0.808949

----------------------------
CARTESIAN COORDINATES (A.U.)
----------------------------
  NO LB      ZA    FRAG     MASS         X           Y           Z
   0 C     6.0000    0    12.011    1.867919   -0.268102   -0.004644
   1 O     8.0000    0    15.999    0.652913   -1.993165   -0.906710
   2 N     7.0000    0    14.007    4.439278   -0.147302    0.059476
   3 H     1.0000    0     1.008    0.983935    1.433013    0.887600
   4 H     1.0000    0     1.008    5.373642    0.673357   -1.399990
   5 H     1.0000    0     1.008    5.435721   -0.857084    1.528693

--------------------------------
INTERNAL COORDINATES (ANGSTROEM)
--------------------------------
 C      0   0   0     0.000000000000     0.00000000     0.00000000
 O      1   0   0     1.214320820051     0.00000000     0.00000000
 N      1   2   0     1.362628091244   125.01449517     0.00000000
 H      1   2   3     1.118971157173   123.31850457   180.10054251
 H      3   1   2     1.014663336281   119.19186803    90.05551335
 H      3   1   2     1.011723543887   121.47783761   270.05381323

---------------------------
INTERNAL COORDINATES (A.U.)
---------------------------
 C      0   0   0     0.000000000000     0.00000000     0.00000000
 O      1   0   0     2.294733788616     0.00000000     0.00000000
 N      1   2   0     2.574993914838   125.01449517     0.00000000
 H      1   2   3     2.114549038814   123.31850457   180.10054251
 H      3   1   2     1.917435823701   119.19186803    90.05551335
 H      3   1   2     1.911880421188   121.47783761   270.05381323

---------------------
BASIS SET INFORMATION
---------------------
There are 4 groups of distinct atoms

 Group   1 Type C   : 17s4p1d contracted to 3s2p1d pattern {881/31/1}
 Group   2 Type O   : 17s4p1d contracted to 3s2p1d pattern {881/31/1}
 Group   3 Type N   : 17s4p1d contracted to 3s2p1d pattern {881/31/1}
 Group   4 Type H   : 4s1p contracted to 2s1p pattern {31/1}

Atom   0C    basis set group =>   1
Atom   1O    basis set group =>   2
Atom   2N    basis set group =>   3
Atom   3H    basis set group =>   4
Atom   4H    basis set group =>   4
Atom   5H    basis set group =>   4
---------------------------------
AUXILIARY/J BASIS SET INFORMATION
---------------------------------
There are 4 groups of distinct atoms

 Group   1 Type C   : 12s5p4d2f1g contracted to 6s4p3d1f1g pattern {711111/2111/211/2/1}
 Group   2 Type O   : 12s5p4d2f1g contracted to 6s4p3d1f1g pattern {711111/2111/211/2/1}
 Group   3 Type N   : 12s5p4d2f1g contracted to 6s4p3d1f1g pattern {711111/2111/211/2/1}
 Group   4 Type H   : 5s2p1d contracted to 3s1p1d pattern {311/2/1}

Atom   0C    basis set group =>   1
Atom   1O    basis set group =>   2
Atom   2N    basis set group =>   3
Atom   3H    basis set group =>   4
Atom   4H    basis set group =>   4
Atom   5H    basis set group =>   4
------------------------------------------------------------------------------
                             ORCA STARTUP CALCULATIONS
                           -- RI-GTO INTEGRALS CHOSEN --
------------------------------------------------------------------------------
------------------------------------------------------------------------------
                   ___                                                        
                  /   \      - P O W E R E D   B Y -                         
                 /     \                                                     
                 |  |  |   _    _      __       _____    __    __             
                 |  |  |  | |  | |    /  \     |  _  \  |  |  /  |          
                  \  \/   | |  | |   /    \    | | | |  |  | /  /          
                 / \  \   | |__| |  /  /\  \   | |_| |  |  |/  /          
                |  |  |   |  __  | /  /__\  \  |    /   |      \           
                |  |  |   | |  | | |   __   |  |    \   |  |\   \          
                \     /   | |  | | |  |  |  |  | |\  \  |  | \   \       
                 \___/    |_|  |_| |__|  |__|  |_| \__\ |__|  \__/        
                                                                              
                      - O R C A' S   B I G   F R I E N D -                    
                                      &                                       
                       - I N T E G R A L  F E E D E R -                       
                                                                              
 v1 FN, 2020, v2 2021, v3 2022-2024                                           
------------------------------------------------------------------------------


----------------------
SHARK INTEGRAL PACKAGE
----------------------

Number of atoms                             ...      6
Number of basis functions                   ...     75
Number of shells                            ...     45
Maximum angular momentum                    ...      2
Integral batch strategy                     ... SHARK/LIBINT Hybrid
RI-J (if used) integral strategy            ... SPLIT-RIJ (Revised 2003 algorithm where possible)
Printlevel                                  ...      1
Contraction scheme used                     ... PARTIAL GENERAL contraction
Prescreening option                         ... SCHWARTZ
   Thresh                                   ... 1.000e-10
   Tcut                                     ... 1.000e-11
   Tpresel                                  ... 1.000e-11 
Coulomb Range Separation                    ... NOT USED
Exchange Range Separation                   ... NOT USED
Multipole approximations                    ... NOT USED
Finite Nucleus Model                        ... NOT USED
CABS basis                                  ... NOT available
Auxiliary Coulomb fitting basis             ... AVAILABLE
   # of basis functions in Aux-J            ...    180
   # of shells in Aux-J                     ...     60
   Maximum angular momentum in Aux-J        ...      4
Auxiliary J/K fitting basis                 ... NOT available
Auxiliary Correlation fitting basis         ... NOT available
Auxiliary 'external' fitting basis          ... NOT available

Checking pre-screening integrals            ... done (  0.0 sec) Dimension = 45
Save PGC pre-screening integrals            ... done (  0.0 sec) Dimension = 45
Calculate PGC overlap integrals             ... done (  0.0 sec) Dimension = 27
Calculating pre-screening integrals (ORCA)  ... done (  0.1 sec) Dimension = 27
Check shell pair data                       ... done (  0.0 sec)
Shell pair information
Shell pair cut-off parameter TPreSel        ...   1.0e-11
Total number of shell pairs                 ...      1035
Shell pairs after pre-screening             ...       909
Total number of primitive shell pairs       ...      1671
Primitive shell pairs kept                  ...      1388
          la=0 lb=0:    435 shell pairs
          la=1 lb=0:    297 shell pairs
          la=1 lb=1:     45 shell pairs
          la=2 lb=0:     99 shell pairs
          la=2 lb=1:     27 shell pairs
          la=2 lb=2:      6 shell pairs

Calculating one electron integrals          ... done (  0.0 sec)
Calculating RI/J V-Matrix + Cholesky decomp.... done (  0.0 sec)
Calculating Nuclear repulsion               ... done (  0.0 sec) ENN=     70.895001540667 Eh

Diagonalization of the overlap matrix:
Smallest eigenvalue                        ... 7.834e-03
Time for diagonalization                   ...    0.006 sec
Threshold for overlap eigenvalues          ... 1.000e-07
Number of eigenvalues below threshold      ... 0
Time for construction of square roots      ...    0.000 sec
Total time needed                          ...    0.006 sec

-------------------
DFT GRID GENERATION
-------------------

General Integration Accuracy     IntAcc      ... 4.388
Radial Grid Type                 RadialGrid  ... OptM3 with GC (2021)
Angular Grid (max. ang.)         AngularGrid ... 4 (Lebedev-302)
Angular grid pruning method      GridPruning ... 4 (adaptive)
Weight generation scheme         WeightScheme... mBecke (2022)
Basis function cutoff            BFCut       ... 1.0000e-10
Integration weight cutoff        WCut        ... 1.0000e-14
Partially contracted basis set               ... off
Rotationally invariant grid construction     ... off
Angular grids for H and He will be reduced by one unit

Total number of grid points                  ...    28126
Total number of batches                      ...      443
Average number of points per batch           ...       63
Average number of grid points per atom       ...     4688

---------------------
SHARK GRID GENERATION
---------------------

General Integration Accuracy     IntAcc      ... 4.388
Radial Grid Type                 RadialGrid  ... OptM3 with GC (2021)
Angular Grid (max. ang.)         AngularGrid ... 4 (Lebedev-302)
Angular grid pruning method      GridPruning ... 4 (adaptive)
Weight generation scheme         WeightScheme... mBecke (2022)
Basis function cutoff            BFCut       ... 1.0000e-10
Integration weight cutoff        WCut        ... 1.0000e-14
Partially contracted basis set               ... off
Rotationally invariant grid construction     ... off
Angular grids for H and He will be reduced by one unit
Steep s-basis detected: some atoms will have their radial
                        grid points doubled.

Total number of grid points                  ...    46707
Total number of batches                      ...      733
Average number of points per batch           ...       63
Average number of grid points per atom       ...     7784

--------------------
COSX GRID GENERATION
--------------------

GRIDX 1
-------
General Integration Accuracy     IntAcc      ... 3.816
Radial Grid Type                 RadialGrid  ... OptM3 with GC (2021)
Angular Grid (max. ang.)         AngularGrid ... 1 (Lebedev-50)
Angular grid pruning method      GridPruning ... 4 (adaptive)
Weight generation scheme         WeightScheme... mBecke (2022)
Basis function cutoff            BFCut       ... 1.0000e-10
Integration weight cutoff        WCut        ... 1.0000e-14
Partially contracted basis set               ... on
Rotationally invariant grid construction     ... off
Angular grids for H and He will be reduced by one unit

Total number of grid points                  ...     3617
Total number of batches                      ...       32
Average number of points per batch           ...      113
Average number of grid points per atom       ...      603
UseSFitting                                  ... on

GRIDX 2
-------
General Integration Accuracy     IntAcc      ... 4.020
Radial Grid Type                 RadialGrid  ... OptM3 with GC (2021)
Angular Grid (max. ang.)         AngularGrid ... 2 (Lebedev-110)
Angular grid pruning method      GridPruning ... 4 (adaptive)
Weight generation scheme         WeightScheme... mBecke (2022)
Basis function cutoff            BFCut       ... 1.0000e-10
Integration weight cutoff        WCut        ... 1.0000e-14
Partially contracted basis set               ... on
Rotationally invariant grid construction     ... off
Angular grids for H and He will be reduced by one unit

Total number of grid points                  ...     7980
Total number of batches                      ...       66
Average number of points per batch           ...      120
Average number of grid points per atom       ...     1330
UseSFitting                                  ... on

GRIDX 3
-------
General Integration Accuracy     IntAcc      ... 4.338
Radial Grid Type                 RadialGrid  ... OptM3 with GC (2021)
Angular Grid (max. ang.)         AngularGrid ... 3 (Lebedev-194)
Angular grid pruning method      GridPruning ... 4 (adaptive)
Weight generation scheme         WeightScheme... mBecke (2022)
Basis function cutoff            BFCut       ... 1.0000e-10
Integration weight cutoff        WCut        ... 1.0000e-14
Partially contracted basis set               ... on
Rotationally invariant grid construction     ... off
Angular grids for H and He will be reduced by one unit

Total number of grid points                  ...    17641
Total number of batches                      ...      141
Average number of points per batch           ...      125
Average number of grid points per atom       ...     2940
UseSFitting                                  ... on
Initializing property integral containers    ... done (  0.0 sec)

SHARK setup successfully completed in   1.0 seconds

Maximum memory used throughout the entire STARTUP-calculation: 19.6 MB
-------------------------------------------------------------------------------
                                 ORCA GUESS
                   Start orbitals & Density for SCF / CASSCF
-------------------------------------------------------------------------------

------------
SCF SETTINGS
------------
Hamiltonian:
 Density Functional     Method          .... DFT(GTOs)
 Exchange Functional    Exchange        .... B88
   X-Alpha parameter    XAlpha          ....  0.666667
   Becke's b parameter  XBeta           ....  0.004200
 Correlation Functional Correlation     .... LYP
 LDA part of GGA corr.  LDAOpt          .... VWN-5
 Gradients option       PostSCFGGA      .... off
 Hybrid DFT is turned on
   Fraction HF Exchange ScalHFX         ....  0.200000
   Scaling of DF-GGA-X  ScalDFX         ....  0.720000
   Scaling of DF-GGA-C  ScalDFC         ....  0.810000
   Scaling of DF-LDA-C  ScalLDAC        ....  1.000000
   Perturbative correction              ....  0.000000
   NL short-range parameter             ....  4.800000
 RI-approximation to the Coulomb term is turned on
   Number of AuxJ basis functions       .... 180
   RIJ-COSX (HFX calculated with COS-X)).... on


General Settings:
 Integral files         IntName         .... nbo
 Hartree-Fock type      HFTyp           .... RHF
 Total Charge           Charge          ....    0
 Multiplicity           Mult            ....    1
 Number of Electrons    NEL             ....   24
 Basis Dimension        Dim             ....   57
 Nuclear Repulsion      ENuc            ....     70.8950015407 Eh

Convergence Acceleration:
 AO-DIIS                CNVDIIS         .... on
   Start iteration      DIISMaxIt       ....    12
   Startup error        DIISStart       ....  0.200000
   # of expansion vecs  DIISMaxEq       ....     5
   Bias factor          DIISBfac        ....   1.050
   Max. coefficient     DIISMaxC        ....  10.000
 MO-DIIS                CNVKDIIS        .... off
 Trust-Rad. Augm. Hess. CNVTRAH         .... auto
   Auto Start mean grad. ratio tolernc. ....  1.125000
   Auto Start start iteration           ....    50
   Auto Start num. interpolation iter.  ....    10
   Max. Number of Micro iterations      ....    24
   Max. Number of Macro iterations      .... Maxiter - #DIIS iter
   Number of Davidson start vectors     ....     2
   Converg. threshold    (grad. norm)   ....   5.000e-05
   Grad. Scal. Fac. for Micro threshold ....   0.100
   Minimum threshold for Micro iter.    ....   1.000e-02
   NR start threshold (gradient norm)   ....   1.000e-04
   Initial trust radius                 ....   0.400
   Minimum AH scaling param. (alpha)    ....   1.000
   Maximum AH scaling param. (alpha)    .... 1000.000
   Quad. conv. algorithm                .... NR
   White noise on init. David. guess    .... on
   Maximum white noise                  ....   0.010
   Pseudo random numbers                .... off
   Inactive MOs                         .... canonical
   Orbital update algorithm             .... Taylor
   Preconditioner                       .... Diag
   Full preconditioner red. dimension   ....   250
 SOSCF                  CNVSOSCF        .... on
   Start iteration      SOSCFMaxIt      ....   150
   Startup grad/error   SOSCFStart      ....  0.003300
   Hessian update       SOSCFHessUp     .... L-BFGS
 Level Shifting         CNVShift        .... on
   Level shift para.    LevelShift      ....    0.2500
   Turn off err/grad.   ShiftErr        ....    0.0010
 Zerner damping         CNVZerner       .... off
 Static damping         CNVDamp         .... on
   Fraction old density DampFac         ....    0.7000
   Max. Damping (<1)    DampMax         ....    0.9800
   Min. Damping (>=0)   DampMin         ....    0.0000
   Turn off err/grad.   DampErr         ....    0.1000

SCF Procedure:
 Maximum # iterations   MaxIter         ....   125
 SCF integral mode      SCFMode         .... Direct
   Integral package                     .... SHARK and LIBINT hybrid scheme
 Reset frequency        DirectResetFreq ....    20
 Integral Threshold     Thresh          ....  1.000e-10 Eh
 Primitive CutOff       TCut            ....  1.000e-11 Eh

Convergence Tolerance:
 Convergence Check Mode ConvCheckMode   .... Total+1el-Energy
 Convergence forced     ConvForced      .... 0
 Energy Change          TolE            ....  1.000e-06 Eh
 1-El. energy change                    ....  1.000e-03 Eh
 Orbital Gradient       TolG            ....  5.000e-05
 Orbital Rotation angle TolX            ....  5.000e-05
 DIIS Error             TolErr          ....  1.000e-06

------------------------------
INITIAL GUESS: MODEL POTENTIAL
------------------------------
Loading Hartree-Fock densities                     ... done
Calculating cut-offs                               ... done
Initializing the effective Hamiltonian             ... done
Setting up the integral package (SHARK)            ... done
Starting the Coulomb interaction                   ... done (   0.0 sec)
Making the grid                                    ... done (   0.0 sec)
Mapping shells                                     ... done
Starting the XC term evaluation                    ... done (   0.0 sec)
  promolecular density results
     # of electrons  =     23.998870543
     EX              =    -20.784745137
     EC              =     -0.816681602
     EX+EC           =    -21.601426739
Transforming the Hamiltonian                       ... done (   0.0 sec)
Diagonalizing the Hamiltonian                      ... done (   0.0 sec)
Back transforming the eigenvectors                 ... done (   0.0 sec)
Now organizing SCF variables                       ... done
                      ------------------
                      INITIAL GUESS DONE (   0.1 sec)
                      ------------------
             **** ENERGY FILE WAS UPDATED (nbo.en.tmp) ****
Finished Guess after   0.2 sec
Maximum memory used throughout the entire GUESS-calculation: 7.5 MB

-------------------------------------------------------------------------------------------
                                      ORCA LEAN-SCF
                              memory conserving SCF solver
-------------------------------------------------------------------------------------------

----------------------------------------D-I-I-S--------------------------------------------
Iteration    Energy (Eh)           Delta-E    RMSDP     MaxDP     DIISErr   Damp  Time(sec)
-------------------------------------------------------------------------------------------
               ***  Starting incremental Fock matrix formation  ***
    1    -169.6029608271913958     0.00e+00  7.47e-03  9.39e-02  2.69e-01  0.700   0.5
    2    -169.6861069051410311    -8.31e-02  4.57e-03  5.61e-02  1.33e-01  0.700   0.3
                               ***Turning on AO-DIIS***
    3    -169.7132368090744023    -2.71e-02  1.51e-03  1.95e-02  4.80e-02  0.700   0.3
    4    -169.7306221010405523    -1.74e-02  2.07e-03  2.08e-02  1.81e-02  0.000   0.2
    5    -169.7704394927298779    -3.98e-02  6.44e-04  6.45e-03  1.14e-02  0.000   0.2
                              *** Initializing SOSCF ***
---------------------------------------S-O-S-C-F--------------------------------------
Iteration    Energy (Eh)           Delta-E    RMSDP     MaxDP     MaxGrad    Time(sec)
--------------------------------------------------------------------------------------
    6    -169.7706880105743323    -2.49e-04  2.09e-04  2.38e-03  1.88e-03     0.2
               *** Restarting incremental Fock matrix formation ***
    7    -169.7706940499800794    -6.04e-06  1.47e-04  1.73e-03  3.36e-04     0.4
    8    -169.7706952079201983    -1.16e-06  3.39e-05  4.50e-04  3.08e-04     0.3
    9    -169.7706957570541135    -5.49e-07  2.77e-05  2.90e-04  1.20e-04     0.3
                 **** Energy Check signals convergence ****

               *****************************************************
               *                     SUCCESS                       *
               *           SCF CONVERGED AFTER   9 CYCLES          *
               *****************************************************

Recomputing exchange energy using gridx3       ... done (    0.515 sec)
Old exchange energy                            :     -4.218641423 Eh
New exchange energy                            :     -4.218624278 Eh
Exchange energy change after final integration :      0.000017145 Eh
Total energy after final integration           :   -169.770678612 Eh
             **** ENERGY FILE WAS UPDATED (nbo.en.tmp) ****

----------------
TOTAL SCF ENERGY
----------------

Total Energy       :       -169.77067861217989 Eh           -4619.69503 eV

Components:
Nuclear Repulsion  :         70.89500154066673 Eh            1929.15107 eV
Electronic Energy  :       -240.66569729772084 Eh           -6548.84656 eV
One Electron Energy:       -371.33129222550536 Eh          -10104.43816 eV
Two Electron Energy:        130.66559492778453 Eh            3555.59160 eV

Virial components:
Potential Energy   :       -338.64658833577550 Eh           -9215.04215 eV
Kinetic Energy     :        168.87590972359558 Eh            4595.34713 eV
Virial Ratio       :          2.00529838086468

DFT components:
N(Alpha)           :       12.000000053790 electrons
N(Beta)            :       12.000000053790 electrons
N(Total)           :       24.000000107580 electrons
E(X)               :      -16.784553377300 Eh       
E(C)               :       -0.970080147761 Eh       
E(XC)              :      -17.754633525062 Eh       

---------------
SCF CONVERGENCE
---------------

  Last Energy change         ...    5.4913e-07  Tolerance :   1.0000e-06
  Last MAX-Density change    ...    2.9002e-04  Tolerance :   1.0000e-05
  Last RMS-Density change    ...    2.7654e-05  Tolerance :   1.0000e-06
  Last DIIS Error            ...    1.8753e-03  Tolerance :   1.0000e-06
  Last Orbital Gradient      ...    1.2009e-04  Tolerance :   5.0000e-05
  Last Orbital Rotation      ...    2.7381e-04  Tolerance :   5.0000e-05


----------------
ORBITAL ENERGIES
----------------

  NO   OCC          E(Eh)            E(eV) 
   0   2.0000     -19.137440      -520.7562 
   1   2.0000     -14.314135      -389.5074 
   2   2.0000     -10.295326      -280.1501 
   3   2.0000      -1.047706       -28.5095 
   4   2.0000      -0.887709       -24.1558 
   5   2.0000      -0.608665       -16.5626 
   6   2.0000      -0.522612       -14.2210 
   7   2.0000      -0.498588       -13.5673 
   8   2.0000      -0.444314       -12.0904 
   9   2.0000      -0.369523       -10.0552 
  10   2.0000      -0.264908        -7.2085 
  11   2.0000      -0.242488        -6.5984 
  12   0.0000      -0.027827        -0.7572 
  13   0.0000       0.058478         1.5913 
  14   0.0000       0.105107         2.8601 
  15   0.0000       0.121902         3.3171 
  16   0.0000       0.273589         7.4447 
  17   0.0000       0.349741         9.5169 
  18   0.0000       0.470347        12.7988 
  19   0.0000       0.473711        12.8903 
  20   0.0000       0.521241        14.1837 
  21   0.0000       0.583955        15.8902 
  22   0.0000       0.602576        16.3969 
*Only the first 10 virtual orbitals were printed.

                    ********************************
                    * MULLIKEN POPULATION ANALYSIS *
                    ********************************

-----------------------
MULLIKEN ATOMIC CHARGES
-----------------------
   0 C :    0.164868
   1 O :   -0.174164
   2 N :   -0.192843
   3 H :   -0.011060
   4 H :    0.106935
   5 H :    0.106265
Sum of atomic charges:   -0.0000000

--------------------------------
MULLIKEN REDUCED ORBITAL CHARGES
--------------------------------
  0 C s       :     3.059619  s :     3.059619
      pz      :     0.811644  p :     2.593140
      px      :     0.895746
      py      :     0.885750
      dz2     :     0.014617  d :     0.182373
      dxz     :     0.031055
      dyz     :     0.019632
      dx2y2   :     0.061934
      dxy     :     0.055134

  1 O s       :     3.749433  s :     3.749433
      pz      :     1.290546  p :     4.406546
      px      :     1.683913
      py      :     1.432086
      dz2     :     0.002766  d :     0.018186
      dxz     :     0.002549
      dyz     :     0.004073
      dx2y2   :     0.003691
      dxy     :     0.005107

  2 N s       :     3.280594  s :     3.280594
      pz      :     1.186053  p :     3.895275
      px      :     1.028239
      py      :     1.680984
      dz2     :     0.002429  d :     0.016974
      dxz     :     0.005772
      dyz     :     0.001091
      dx2y2   :     0.003941
      dxy     :     0.003741

  3 H s       :     0.986590  s :     0.986590
      pz      :     0.005697  p :     0.024471
      px      :     0.005586
      py      :     0.013187

  4 H s       :     0.834883  s :     0.834883
      pz      :     0.023783  p :     0.058182
      px      :     0.014304
      py      :     0.020095

  5 H s       :     0.835349  s :     0.835349
      pz      :     0.023858  p :     0.058386
      px      :     0.014913
      py      :     0.019615



                     *******************************
                     * LOEWDIN POPULATION ANALYSIS *
                     *******************************

----------------------
LOEWDIN ATOMIC CHARGES
----------------------
   0 C :   -0.087964
   1 O :    0.006640
   2 N :   -0.015393
   3 H :   -0.018407
   4 H :    0.058356
   5 H :    0.056768

-------------------------------
LOEWDIN REDUCED ORBITAL CHARGES
-------------------------------
  0 C s       :     2.857329  s :     2.857329
      pz      :     0.810771  p :     2.756311
      px      :     0.978985
      py      :     0.966554
      dz2     :     0.035878  d :     0.474324
      dxz     :     0.070829
      dyz     :     0.052632
      dx2y2   :     0.163854
      dxy     :     0.151131

  1 O s       :     3.508727  s :     3.508727
      pz      :     1.291846  p :     4.453523
      px      :     1.677347
      py      :     1.484330
      dz2     :     0.003824  d :     0.031110
      dxz     :     0.004037
      dyz     :     0.007144
      dx2y2   :     0.006201
      dxy     :     0.009904

  2 N s       :     2.977070  s :     2.977070
      pz      :     1.247039  p :     3.979367
      px      :     1.132159
      py      :     1.600170
      dz2     :     0.009778  d :     0.058955
      dxz     :     0.020470
      dyz     :     0.004475
      dx2y2   :     0.013302
      dxy     :     0.010931

  3 H s       :     0.943729  s :     0.943729
      pz      :     0.017808  p :     0.074678
      px      :     0.018556
      py      :     0.038314

  4 H s       :     0.795194  s :     0.795194
      pz      :     0.057262  p :     0.146449
      px      :     0.032666
      py      :     0.056521

  5 H s       :     0.795409  s :     0.795409
      pz      :     0.057632  p :     0.147823
      px      :     0.034771
      py      :     0.055420



                      *****************************
                      * MAYER POPULATION ANALYSIS *
                      *****************************

  NA   - Mulliken gross atomic population
  ZA   - Total nuclear charge
  QA   - Mulliken gross atomic charge
  VA   - Mayer's total valence
  BVA  - Mayer's bonded valence
  FA   - Mayer's free valence

  ATOM       NA         ZA         QA         VA         BVA        FA
  0 C      5.8351     6.0000     0.1649     4.3500     4.3500    -0.0000
  1 O      8.1742     8.0000    -0.1742     2.3174     2.3174     0.0000
  2 N      7.1928     7.0000    -0.1928     3.0676     3.0676    -0.0000
  3 H      1.0111     1.0000    -0.0111     0.9680     0.9680    -0.0000
  4 H      0.8931     1.0000     0.1069     1.0191     1.0191     0.0000
  5 H      0.8937     1.0000     0.1063     1.0193     1.0193     0.0000

  Mayer bond orders larger than 0.100000
B(  0-C ,  1-O ) :   2.2482 B(  0-C ,  2-N ) :   1.1378 B(  0-C ,  3-H ) :   0.9244 
B(  2-N ,  4-H ) :   0.9704 B(  2-N ,  5-H ) :   0.9712 

Now starting NBO....

 *********************************** NBO 7.0 ***********************************
             N A T U R A L   A T O M I C   O R B I T A L   A N D
          N A T U R A L   B O N D   O R B I T A L   A N A L Y S I S
 **************************** Suman Saurav (S102030) ***************************
  (c) Copyright 1996-2020 Board of Regents of the University of Wisconsin System
      on behalf of the Theoretical Chemistry Institute.  All rights reserved.

          Cite this program [NBO 7.0.9 (21-May-2020)] as:

          NBO 7.0.  E. D. Glendening, J. K. Badenhoop, A. E. Reed,
          J. E. Carpenter, J. A. Bohmann, C. M. Morales, P. Karafiloglou,
          C. R. Landis, and F. Weinhold, Theoretical Chemistry Institute,
          University of Wisconsin, Madison, WI (2018)

       /NPA    / : Natural Population Analysis
       /NBO    / : Natural Bond Orbital Analysis
       /AONBO  / : Checkpoint the AO to NBO transformation
       /ARCHIVE/ : Write the archive file to lfn47

 Job title: ORCA Job: nbo


 NATURAL POPULATIONS:  Natural atomic orbital occupancies

  NAO Atom No lang   Type(AO)    Occupancy      Energy
 -------------------------------------------------------
   1    C  1  s      Cor( 1s)     1.99998     -10.29516
   2    C  1  s      Val( 2s)     0.89118      -0.12116
   3    C  1  s      Ryd( 3s)     0.01045       0.68239
   4    C  1  px     Val( 2p)     0.82328       0.03573
   5    C  1  px     Ryd( 3p)     0.01003       0.46440
   6    C  1  py     Val( 2p)     0.88162      -0.01165
   7    C  1  py     Ryd( 3p)     0.00835       0.58130
   8    C  1  pz     Val( 2p)     0.76731      -0.09091
   9    C  1  pz     Ryd( 3p)     0.00469       0.48950
  10    C  1  dxy    Ryd( 3d)     0.00298       1.89426
  11    C  1  dxz    Ryd( 3d)     0.00157       1.64363
  12    C  1  dyz    Ryd( 3d)     0.00151       1.67069
  13    C  1  dx2y2  Ryd( 3d)     0.00410       1.86668
  14    C  1  dz2    Ryd( 3d)     0.00130       1.54622

  15    O  2  s      Cor( 1s)     1.99999     -19.13723
  16    O  2  s      Val( 2s)     1.72119      -0.68581
  17    O  2  s      Ryd( 3s)     0.00105       1.93066
  18    O  2  px     Val( 2p)     1.80726      -0.26559
  19    O  2  px     Ryd( 3p)     0.00181       1.09980
  20    O  2  py     Val( 2p)     1.59507      -0.26970
  21    O  2  py     Ryd( 3p)     0.00083       1.04320
  22    O  2  pz     Val( 2p)     1.37881      -0.24956
  23    O  2  pz     Ryd( 3p)     0.00031       1.03209
  24    O  2  dxy    Ryd( 3d)     0.00215       2.98909
  25    O  2  dxz    Ryd( 3d)     0.00103       2.77145
  26    O  2  dyz    Ryd( 3d)     0.00161       2.88611
  27    O  2  dx2y2  Ryd( 3d)     0.00173       2.89547
  28    O  2  dz2    Ryd( 3d)     0.00107       2.76380

  29    N  3  s      Cor( 1s)     1.99998     -14.31400
  30    N  3  s      Val( 2s)     1.33967      -0.45202
  31    N  3  s      Ryd( 3s)     0.00030       1.38818
  32    N  3  px     Val( 2p)     1.32811      -0.19671
  33    N  3  px     Ryd( 3p)     0.00263       0.87134
  34    N  3  py     Val( 2p)     1.81413      -0.22884
  35    N  3  py     Ryd( 3p)     0.00473       0.84584
  36    N  3  pz     Val( 2p)     1.50230      -0.20913
  37    N  3  pz     Ryd( 3p)     0.00186       0.95532
  38    N  3  dxy    Ryd( 3d)     0.00029       2.17520
  39    N  3  dxz    Ryd( 3d)     0.00057       2.39731
  40    N  3  dyz    Ryd( 3d)     0.00086       2.16174
  41    N  3  dx2y2  Ryd( 3d)     0.00119       2.28789
  42    N  3  dz2    Ryd( 3d)     0.00051       2.16518

  43    H  4  s      Val( 1s)     0.88358       0.02370
  44    H  4  s      Ryd( 2s)     0.00617       0.33826
  45    H  4  px     Ryd( 2p)     0.00029       1.80106
  46    H  4  py     Ryd( 2p)     0.00081       1.98012
  47    H  4  pz     Ryd( 2p)     0.00026       1.66359

  48    H  5  s      Val( 1s)     0.59137       0.09959
  49    H  5  s      Ryd( 2s)     0.00162       0.36523
  50    H  5  px     Ryd( 2p)     0.00054       1.86280
  51    H  5  py     Ryd( 2p)     0.00093       1.71616
  52    H  5  pz     Ryd( 2p)     0.00108       2.03611

  53    H  6  s      Val( 1s)     0.58986       0.10360
  54    H  6  s      Ryd( 2s)     0.00157       0.36085
  55    H  6  px     Ryd( 2p)     0.00057       1.88429
  56    H  6  py     Ryd( 2p)     0.00091       1.69564
  57    H  6  pz     Ryd( 2p)     0.00106       2.04943


 Summary of Natural Population Analysis:

                                     Natural Population
             Natural    ---------------------------------------------
  Atom No    Charge        Core      Valence    Rydberg      Total
 --------------------------------------------------------------------
    C  1    0.59164      1.99998     3.36339    0.04498     5.40836
    O  2   -0.51391      1.99999     6.50234    0.01158     8.51391
    N  3   -0.99713      1.99998     5.98421    0.01293     7.99713
    H  4    0.10889      0.00000     0.88358    0.00753     0.89111
    H  5    0.40447      0.00000     0.59137    0.00416     0.59553
    H  6    0.40604      0.00000     0.58986    0.00410     0.59396
 ====================================================================
 * Total *  0.00000      5.99996    17.91476    0.08529    24.00000

                                 Natural Population
 ---------------------------------------------------------
   Core                       5.99996 ( 99.9993% of    6)
   Valence                   17.91476 ( 99.5264% of   18)
   Natural Minimal Basis     23.91471 ( 99.6446% of   24)
   Natural Rydberg Basis      0.08529 (  0.3554% of   24)
 ---------------------------------------------------------

    Atom No         Natural Electron Configuration
 ----------------------------------------------------------------------------
      C  1      [core]2s( 0.89)2p( 2.47)3s( 0.01)3p( 0.02)3d( 0.01)
      O  2      [core]2s( 1.72)2p( 4.78)3d( 0.01)
      N  3      [core]2s( 1.34)2p( 4.64)3p( 0.01)
      H  4            1s( 0.88)2s( 0.01)
      H  5            1s( 0.59)
      H  6            1s( 0.59)


 NATURAL BOND ORBITAL ANALYSIS:

                            Occupancies       Lewis Structure    Low   High
         Max    Occ     -------------------  -----------------   occ   occ
  Cycle  Ctr   Thresh    Lewis   non-Lewis     CR  BD  nC  LP    (L)   (NL)
 ============================================================================
    1     2     1.90    22.74175   1.25825      3   7   0   2     1      2
    2     2     1.87    23.72162   0.27838      3   6   0   3     0      0
 ----------------------------------------------------------------------------

 Structure accepted: No low occupancy Lewis orbitals

 -------------------------------------------------------
   Core                      5.99996 ( 99.999% of   6)
   Valence Lewis            17.72166 ( 98.454% of  18)
  ==================      =============================
   Total Lewis              23.72162 ( 98.840% of  24)
  -----------------------------------------------------
   Valence non-Lewis         0.22803 (  0.950% of  24)
   Rydberg non-Lewis         0.05035 (  0.210% of  24)
  ==================      =============================
   Total non-Lewis           0.27838 (  1.160% of  24)
 -------------------------------------------------------


     (Occupancy)   Bond orbital / Coefficients / Hybrids
 ------------------ Lewis ------------------------------------------------------
   1. (1.99998) CR ( 1) C  1            s(100.00%)
                                         1.0000  0.0000  0.0000  0.0000  0.0000
                                         0.0000  0.0000  0.0000  0.0000  0.0000
                                         0.0000  0.0000  0.0000  0.0000
   2. (1.99999) CR ( 1) O  2            s(100.00%)
                                         1.0000  0.0000  0.0000  0.0000  0.0000
                                         0.0000  0.0000  0.0000  0.0000  0.0000
                                         0.0000  0.0000  0.0000  0.0000
   3. (1.99998) CR ( 1) N  3            s(100.00%)
                                         1.0000  0.0000  0.0000  0.0000  0.0000
                                         0.0000  0.0000  0.0000  0.0000  0.0000
                                         0.0000  0.0000  0.0000  0.0000
   4. (1.98243) LP ( 1) O  2            s( 58.71%)p 0.70( 41.26%)d 0.00(  0.03%)
                                         0.0000  0.7662 -0.0111 -0.3513  0.0034
                                        -0.4762  0.0040 -0.2497  0.0021 -0.0109
                                        -0.0057 -0.0097  0.0029  0.0061
   5. (1.87765) LP ( 2) O  2            s(  0.04%)p99.99( 99.86%)d 2.25(  0.10%)
                                         0.0000  0.0209 -0.0027  0.8498 -0.0083
                                        -0.4671  0.0058 -0.2409  0.0030  0.0128
                                         0.0067 -0.0115  0.0252 -0.0052
   6. (1.93664) LP ( 1) N  3            s(  0.00%)p 1.00( 99.99%)d 0.00(  0.00%)
                                         0.0000  0.0042  0.0005 -0.0446  0.0011
                                         0.8842 -0.0362  0.4631 -0.0189 -0.0055
                                        -0.0029  0.0003 -0.0007 -0.0002
   7. (1.99788) BD ( 1) C  1- O  2
               ( 32.96%)   0.5741* C  1 s( 32.91%)p 2.03( 66.86%)d 0.01(  0.23%)
                                         0.0000  0.5706  0.0598 -0.4140 -0.0424
                                        -0.6241 -0.0487 -0.3208 -0.0258  0.0356
                                         0.0185  0.0183 -0.0176 -0.0048
               ( 67.04%)   0.8188* O  2 s( 41.25%)p 1.42( 58.55%)d 0.01(  0.21%)
                                         0.0000  0.6419  0.0208  0.3909  0.0074
                                         0.5804  0.0119  0.3092  0.0063  0.0326
                                         0.0171  0.0219 -0.0124 -0.0102
   8. (1.98691) BD ( 2) C  1- O  2
               ( 35.30%)   0.5941* C  1 s(  0.00%)p 1.00( 99.68%)d 0.00(  0.32%)
                                         0.0000  0.0043  0.0000  0.0009 -0.0004
                                         0.4582 -0.0283 -0.8850  0.0536 -0.0117
                                         0.0227  0.0288  0.0205  0.0359
               ( 64.70%)   0.8044* O  2 s(  0.00%)p 1.00( 99.83%)d 0.00(  0.17%)
                                         0.0000  0.0028  0.0001  0.0047  0.0001
                                         0.4649  0.0043 -0.8844 -0.0081  0.0103
                                        -0.0192 -0.0199 -0.0144 -0.0250
   9. (1.99588) BD ( 1) C  1- N  3
               ( 37.45%)   0.6120* C  1 s( 32.91%)p 2.03( 66.88%)d 0.01(  0.20%)
                                         0.0000  0.5726  0.0356  0.8162  0.0481
                                        -0.0167  0.0046 -0.0050  0.0023  0.0013
                                         0.0010 -0.0051  0.0403 -0.0191
               ( 62.55%)   0.7909* N  3 s( 39.32%)p 1.54( 60.58%)d 0.00(  0.10%)
                                         0.0000  0.6270  0.0065 -0.7772 -0.0166
                                        -0.0359 -0.0010 -0.0120  0.0007  0.0028
                                         0.0014 -0.0072  0.0288 -0.0108
  10. (1.99206) BD ( 1) C  1- H  4
               ( 57.77%)   0.7601* C  1 s( 34.69%)p 1.88( 65.24%)d 0.00(  0.07%)
                                         0.0000  0.5865 -0.0542 -0.3933 -0.0010
                                         0.6253 -0.0153  0.3262 -0.0077 -0.0160
                                        -0.0084  0.0116 -0.0147 -0.0009
               ( 42.23%)   0.6498* H  4 s( 99.87%)p 0.00(  0.13%)
                                         0.9992 -0.0176  0.0152 -0.0288 -0.0152
  11. (1.97527) BD ( 1) N  3- H  5
               ( 70.31%)   0.8385* N  3 s( 29.86%)p 2.35( 70.09%)d 0.00(  0.06%)
                                         0.0000  0.5464 -0.0026  0.4340  0.0268
                                         0.3469  0.0079 -0.6255 -0.0130  0.0068
                                        -0.0111 -0.0177  0.0021  0.0104
               ( 29.69%)   0.5448* H  5 s( 99.76%)p 0.00(  0.24%)
                                         0.9988 -0.0036 -0.0249 -0.0197  0.0367
  12. (1.97693) BD ( 1) N  3- H  6
               ( 70.43%)   0.8392* N  3 s( 30.69%)p 2.26( 69.25%)d 0.00(  0.06%)
                                         0.0000  0.5540 -0.0017  0.4510  0.0269
                                        -0.3082 -0.0062  0.6270  0.0137 -0.0057
                                         0.0129 -0.0148  0.0044  0.0119
               ( 29.57%)   0.5438* H  6 s( 99.76%)p 0.00(  0.24%)
                                         0.9988 -0.0037 -0.0263  0.0184 -0.0364
 ---------------- non-Lewis ----------------------------------------------------
  13. (0.03507) BD*( 1) C  1- O  2
               ( 67.04%)   0.8188* C  1 s( 32.91%)p 2.03( 66.86%)d 0.01(  0.23%)
                                         0.0000  0.5706  0.0598 -0.4140 -0.0424
                                        -0.6241 -0.0487 -0.3208 -0.0258  0.0356
                                         0.0185  0.0183 -0.0176 -0.0048
               ( 32.96%)  -0.5741* O  2 s( 41.25%)p 1.42( 58.55%)d 0.01(  0.21%)
                                         0.0000  0.6419  0.0208  0.3909  0.0074
                                         0.5804  0.0119  0.3092  0.0063  0.0326
                                         0.0171  0.0219 -0.0124 -0.0102
  14. (0.04168) BD*( 2) C  1- O  2
               ( 64.70%)   0.8044* C  1 s(  0.00%)p 1.00( 99.68%)d 0.00(  0.32%)
                                         0.0000  0.0043  0.0000  0.0009 -0.0004
                                         0.4582 -0.0283 -0.8850  0.0536 -0.0117
                                         0.0227  0.0288  0.0205  0.0359
               ( 35.30%)  -0.5941* O  2 s(  0.00%)p 1.00( 99.83%)d 0.00(  0.17%)
                                         0.0000  0.0028  0.0001  0.0047  0.0001
                                         0.4649  0.0043 -0.8844 -0.0081  0.0103
                                        -0.0192 -0.0199 -0.0144 -0.0250
  15. (0.05812) BD*( 1) C  1- N  3
               ( 62.55%)   0.7909* C  1 s( 32.91%)p 2.03( 66.88%)d 0.01(  0.20%)
                                         0.0000  0.5726  0.0356  0.8162  0.0481
                                        -0.0167  0.0046 -0.0050  0.0023  0.0013
                                         0.0010 -0.0051  0.0403 -0.0191
               ( 37.45%)  -0.6120* N  3 s( 39.32%)p 1.54( 60.58%)d 0.00(  0.10%)
                                         0.0000  0.6270  0.0065 -0.7772 -0.0166
                                        -0.0359 -0.0010 -0.0120  0.0007  0.0028
                                         0.0014 -0.0072  0.0288 -0.0108
  16. (0.07481) BD*( 1) C  1- H  4
               ( 42.23%)   0.6498* C  1 s( 34.69%)p 1.88( 65.24%)d 0.00(  0.07%)
                                         0.0000 -0.5865  0.0542  0.3933  0.0010
                                        -0.6253  0.0153 -0.3262  0.0077  0.0160
                                         0.0084 -0.0116  0.0147  0.0009
               ( 57.77%)  -0.7601* H  4 s( 99.87%)p 0.00(  0.13%)
                                        -0.9992  0.0176 -0.0152  0.0288  0.0152
  17. (0.00901) BD*( 1) N  3- H  5
               ( 29.69%)   0.5448* N  3 s( 29.86%)p 2.35( 70.09%)d 0.00(  0.06%)
                                         0.0000 -0.5464  0.0026 -0.4340 -0.0268
                                        -0.3469 -0.0079  0.6255  0.0130 -0.0068
                                         0.0111  0.0177 -0.0021 -0.0104
               ( 70.31%)  -0.8385* H  5 s( 99.76%)p 0.00(  0.24%)
                                        -0.9988  0.0036  0.0249  0.0197 -0.0367
  18. (0.00935) BD*( 1) N  3- H  6
               ( 29.57%)   0.5438* N  3 s( 30.69%)p 2.26( 69.25%)d 0.00(  0.06%)
                                         0.0000 -0.5540  0.0017 -0.4510 -0.0269
                                         0.3082  0.0062 -0.6270 -0.0137  0.0057
                                        -0.0129  0.0148 -0.0044 -0.0119
               ( 70.43%)  -0.8392* H  6 s( 99.76%)p 0.00(  0.24%)
                                        -0.9988  0.0037  0.0263 -0.0184  0.0364
  19. (0.01767) RY ( 1) C  1            s( 15.05%)p 5.44( 81.86%)d 0.21(  3.09%)
                                         0.0000 -0.0322  0.3866  0.0571 -0.6437
                                         0.0628 -0.5574  0.0328 -0.2921  0.0790
                                         0.0400  0.0460 -0.1387  0.0414
  20. (0.00879) RY ( 2) C  1            s( 38.03%)p 0.31( 11.86%)d 1.32( 50.12%)
                                         0.0000 -0.0225  0.6163 -0.0611  0.3300
                                         0.0496 -0.0462  0.0254 -0.0257  0.3163
                                         0.1688 -0.2428  0.5474 -0.1185
  21. (0.00268) RY ( 3) C  1            s(  0.15%)p99.99( 31.86%)d99.99( 67.99%)
                                         0.0000 -0.0075  0.0376 -0.0203  0.3168
                                        -0.0250 -0.4215 -0.0109 -0.1984 -0.7067
                                        -0.3544 -0.1473  0.1802  0.0279
  22. (0.00241) RY ( 4) C  1            s(  0.00%)p 1.00( 57.96%)d 0.73( 42.04%)
                                         0.0000 -0.0003  0.0028  0.0004 -0.0042
                                        -0.0344 -0.3423  0.0678  0.6758 -0.2480
                                         0.5184  0.1808  0.1118  0.2120
  23. (0.00025) RY ( 5) C  1            s( 11.65%)p 2.83( 32.98%)d 4.75( 55.37%)
                                         0.0000 -0.0173  0.3409  0.0027  0.5512
                                         0.0213 -0.1345  0.0101 -0.0856  0.1114
                                         0.0577  0.3255 -0.6472  0.1151
  24. (0.00000) RY ( 6) C  1            s(  0.08%)p 1.09(  0.09%)d99.99( 99.83%)
  25. (0.00000) RY ( 7) C  1            s( 34.53%)p 1.23( 42.41%)d 0.67( 23.06%)
  26. (0.00000) RY ( 8) C  1            s(  0.00%)p 1.00( 38.65%)d 1.59( 61.35%)
  27. (0.00000) RY ( 9) C  1            s(  0.00%)p 1.00(  3.66%)d26.29( 96.33%)
  28. (0.00219) RY ( 1) O  2            s(  0.12%)p99.99( 98.57%)d10.72(  1.31%)
                                         0.0000 -0.0003  0.0350 -0.0063 -0.8402
                                         0.0024  0.4704  0.0012  0.2416 -0.0609
                                        -0.0326  0.0416 -0.0803  0.0128
  29. (0.00036) RY ( 2) O  2            s( 76.21%)p 0.20( 15.38%)d 0.11(  8.41%)
                                         0.0000 -0.0069  0.8730 -0.0123  0.2184
                                        -0.0104  0.2890 -0.0054  0.1490 -0.0730
                                        -0.0400 -0.0820  0.2529 -0.0806
  30. (0.00005) RY ( 3) O  2            s(  7.83%)p 8.14( 63.73%)d 3.63( 28.44%)
  31. (0.00002) RY ( 4) O  2            s(  0.01%)p 1.00( 81.24%)d 0.23( 18.76%)
  32. (0.00000) RY ( 5) O  2            s(  3.65%)p 5.39( 19.69%)d20.98( 76.65%)
  33. (0.00000) RY ( 6) O  2            s( 10.73%)p 0.13(  1.41%)d 8.19( 87.85%)
  34. (0.00000) RY ( 7) O  2            s(  1.42%)p 1.15(  1.63%)d68.29( 96.95%)
  35. (0.00000) RY ( 8) O  2            s(  0.01%)p99.99( 18.23%)d99.99( 81.76%)
  36. (0.00000) RY ( 9) O  2            s(  0.00%)p 1.00(  0.63%)d99.99( 99.37%)
  37. (0.00269) RY ( 1) N  3            s(  0.13%)p99.99( 96.40%)d27.05(  3.47%)
                                         0.0000  0.0021  0.0358 -0.0009 -0.0483
                                         0.0345  0.8663  0.0180  0.4578 -0.1605
                                        -0.0839  0.0359 -0.0166 -0.0197
  38. (0.00058) RY ( 2) N  3            s( 41.05%)p 1.15( 47.29%)d 0.28( 11.66%)
                                         0.0000  0.0207  0.6404  0.0261 -0.6856
                                         0.0010 -0.0456 -0.0005  0.0038  0.1438
                                         0.0587  0.1588 -0.2588  0.0159
  39. (0.00032) RY ( 3) N  3            s(  0.09%)p99.99( 32.97%)d99.99( 66.94%)
                                         0.0000  0.0003  0.0303 -0.0006 -0.0047
                                         0.0017  0.2675 -0.0029 -0.5080 -0.3586
                                         0.6972  0.1423  0.0892  0.1627
  40. (0.00004) RY ( 4) N  3            s( 46.09%)p 0.65( 30.18%)d 0.51( 23.73%)
  41. (0.00001) RY ( 5) N  3            s(  1.72%)p 3.23(  5.57%)d53.86( 92.71%)
  42. (0.00000) RY ( 6) N  3            s(  9.44%)p 0.33(  3.12%)d 9.27( 87.45%)
  43. (0.00000) RY ( 7) N  3            s(  1.51%)p12.10( 18.29%)d53.05( 80.20%)
  44. (0.00000) RY ( 8) N  3            s(  0.10%)p99.99( 65.19%)d99.99( 34.71%)
  45. (0.00000) RY ( 9) N  3            s(  0.00%)p 1.00(  1.09%)d90.49( 98.90%)
  46. (0.00646) RY ( 1) H  4            s( 99.70%)p 0.00(  0.30%)
                                         0.0195  0.9983 -0.0070  0.0486  0.0249
  47. (0.00013) RY ( 2) H  4            s(  0.09%)p99.99( 99.91%)
                                        -0.0076  0.0283 -0.7872 -0.5455 -0.2862
  48. (0.00006) RY ( 3) H  4            s(  0.00%)p 1.00(100.00%)
  49. (0.00005) RY ( 4) H  4            s(  0.35%)p99.99( 99.65%)
  50. (0.00174) RY ( 1) H  5            s( 93.59%)p 0.07(  6.41%)
                                         0.0151  0.9673  0.1645  0.0237 -0.1910
  51. (0.00086) RY ( 2) H  5            s(  0.46%)p99.99( 99.54%)
                                         0.0014  0.0675 -0.0167  0.8960  0.4387
  52. (0.00021) RY ( 3) H  5            s(  0.07%)p99.99( 99.93%)
                                         0.0044  0.0259 -0.8085  0.2447 -0.5346
  53. (0.00001) RY ( 4) H  5            s(  6.12%)p15.33( 93.88%)
  54. (0.00168) RY ( 1) H  6            s( 93.59%)p 0.07(  6.41%)
                                         0.0152  0.9673  0.1619 -0.1482  0.1260
  55. (0.00086) RY ( 2) H  6            s(  0.53%)p99.99( 99.47%)
                                         0.0015  0.0730 -0.0203  0.8693  0.4884
  56. (0.00021) RY ( 3) H  6            s(  0.02%)p99.99( 99.98%)
                                         0.0045  0.0138 -0.7859 -0.3175  0.5304
  57. (0.00001) RY ( 4) H  6            s(  6.09%)p15.43( 93.91%)


 NHO DIRECTIONALITY AND BOND BENDING (deviation from line of nuclear centers at
                                      the position of maximum hybrid amplitude)

         [Thresholds for printing:  angular deviation  >  1.0 degree]
                                    p- or d-character  > 25.0%
                                    orbital occupancy  >  0.10e

                        Line of Centers        Hybrid 1             Hybrid 2
                        ---------------  -------------------  ------------------
           NBO            Theta   Phi    Theta   Phi    Dev   Theta   Phi    Dev
 ===============================================================================
   4. LP ( 1) O  2          --     --    112.8  233.4   --      --     --    --
   5. LP ( 2) O  2          --     --    103.6  332.1   --      --     --    --
   6. LP ( 1) N  3          --     --    117.6  272.8   --      --     --    --
   7. BD ( 1) C  1- O  2  113.1  234.8   113.3  236.9   1.9    66.3   55.9   1.1
   8. BD ( 2) C  1- O  2  113.1  234.8   153.7   91.5  88.5   151.4   88.3  88.8
   9. BD ( 1) C  1- N  3   88.6    2.7    90.0  359.6   3.4     --     --    --
  10. BD ( 1) C  1- H  4   65.0  117.5    65.8  120.7   3.1     --     --    --
  11. BD ( 1) N  3- H  5  139.6   41.3   138.8   39.4   1.5     --     --    --


 SECOND ORDER PERTURBATION THEORY ANALYSIS OF FOCK MATRIX IN NBO BASIS

     Threshold for printing:   0.50 kcal/mol
                                                          E(2) E(NL)-E(L) F(L,NL)
      Donor (L) NBO              Acceptor (NL) NBO      kcal/mol   a.u.    a.u.
 ===============================================================================

 within unit  1
    4. LP ( 1) O  2            15. BD*( 1) C  1- N  3      0.80    1.05   0.026
    4. LP ( 1) O  2            16. BD*( 1) C  1- H  4      0.90    0.97   0.026
    4. LP ( 1) O  2            19. RY ( 1) C  1            7.77    1.10   0.082
    5. LP ( 2) O  2            15. BD*( 1) C  1- N  3     22.74    0.75   0.116
    5. LP ( 2) O  2            16. BD*( 1) C  1- H  4     20.86    0.67   0.106
    5. LP ( 2) O  2            20. RY ( 2) C  1            3.26    1.59   0.064
    5. LP ( 2) O  2            23. RY ( 5) C  1            0.78    1.54   0.031
    5. LP ( 2) O  2            33. RY ( 6) O  2            0.51    3.06   0.035
    6. LP ( 1) N  3            13. BD*( 1) C  1- O  2     15.32    0.85   0.102
    6. LP ( 1) N  3            16. BD*( 1) C  1- H  4      9.76    0.65   0.071
    6. LP ( 1) N  3            21. RY ( 3) C  1            0.84    1.74   0.034
    6. LP ( 1) N  3            51. RY ( 2) H  5            1.24    1.81   0.042
    6. LP ( 1) N  3            55. RY ( 2) H  6            1.24    1.81   0.042
    7. BD ( 1) C  1- O  2      37. RY ( 1) N  3            0.55    1.73   0.027
    8. BD ( 2) C  1- O  2      17. BD*( 1) N  3- H  5      2.62    0.81   0.041
    8. BD ( 2) C  1- O  2      18. BD*( 1) N  3- H  6      2.69    0.82   0.042
    9. BD ( 1) C  1- N  3      28. RY ( 1) O  2            0.82    1.87   0.035
    9. BD ( 1) C  1- N  3      50. RY ( 1) H  5            0.51    1.27   0.023
   10. BD ( 1) C  1- H  4      17. BD*( 1) N  3- H  5      0.61    0.94   0.021
   10. BD ( 1) C  1- H  4      18. BD*( 1) N  3- H  6      0.68    0.95   0.023
   10. BD ( 1) C  1- H  4      28. RY ( 1) O  2            1.19    1.65   0.040
   10. BD ( 1) C  1- H  4      37. RY ( 1) N  3            1.36    1.33   0.038
   11. BD ( 1) N  3- H  5      14. BD*( 2) C  1- O  2      5.96    0.62   0.054
   11. BD ( 1) N  3- H  5      22. RY ( 4) C  1            1.03    1.54   0.036
   12. BD ( 1) N  3- H  6      14. BD*( 2) C  1- O  2      5.45    0.62   0.052
   12. BD ( 1) N  3- H  6      22. RY ( 4) C  1            0.98    1.54   0.035


 NATURAL BOND ORBITALS (Summary):

                                                     Principal Delocalizations
           NBO                 Occupancy    Energy   (geminal,vicinal,remote)
 ===============================================================================
 Molecular unit  1  (CH3NO)
 ------ Lewis --------------------------------------
    1. CR ( 1) C  1             1.99998   -10.29516
    2. CR ( 1) O  2             1.99999   -19.13723
    3. CR ( 1) N  3             1.99998   -14.31400
    4. LP ( 1) O  2             1.98243    -0.56113  19(v),16(v),15(v)
    5. LP ( 2) O  2             1.87765    -0.25851  15(v),16(v),20(v),23(v)
                                                     33(g)
    6. LP ( 1) N  3             1.93664    -0.23808  13(v),16(v),55(v),51(v)
                                                     21(v)
    7. BD ( 1) C  1- O  2       1.99788    -0.90761  37(v)
    8. BD ( 2) C  1- O  2       1.98691    -0.37848  18(v),17(v)
    9. BD ( 1) C  1- N  3       1.99588    -0.72542  28(v),50(v)
   10. BD ( 1) C  1- H  4       1.99206    -0.50896  37(v),28(v),18(v),17(v)
   11. BD ( 1) N  3- H  5       1.97527    -0.60137  14(v),22(v)
   12. BD ( 1) N  3- H  6       1.97693    -0.60557  14(v),22(v)
 ------ non-Lewis ----------------------------------
   13. BD*( 1) C  1- O  2       0.03507     0.61088
   14. BD*( 2) C  1- O  2       0.04168     0.01370
   15. BD*( 1) C  1- N  3       0.05812     0.49038
   16. BD*( 1) C  1- H  4       0.07481     0.41131
   17. BD*( 1) N  3- H  5       0.00901     0.43463
   18. BD*( 1) N  3- H  6       0.00935     0.44077
   19. RY ( 1) C  1             0.01767     0.53672
   20. RY ( 2) C  1             0.00879     1.33372
   21. RY ( 3) C  1             0.00268     1.50276
   22. RY ( 4) C  1             0.00241     0.93585
   23. RY ( 5) C  1             0.00025     1.28563
   24. RY ( 6) C  1             0.00000     1.65235
   25. RY ( 7) C  1             0.00000     1.03512
   26. RY ( 8) C  1             0.00000     1.11533
   27. RY ( 9) C  1             0.00000     1.38334
   28. RY ( 1) O  2             0.00219     1.14048
   29. RY ( 2) O  2             0.00036     2.05525
   30. RY ( 3) O  2             0.00005     1.57053
   31. RY ( 4) O  2             0.00002     1.29549
   32. RY ( 5) O  2             0.00000     2.69909
   33. RY ( 6) O  2             0.00000     2.79899
   34. RY ( 7) O  2             0.00000     2.63166
   35. RY ( 8) O  2             0.00000     2.44636
   36. RY ( 9) O  2             0.00000     2.76638
   37. RY ( 1) N  3             0.00269     0.82396
   38. RY ( 2) N  3             0.00058     1.47547
   39. RY ( 3) N  3             0.00032     2.10114
   40. RY ( 4) N  3             0.00004     1.41594
   41. RY ( 5) N  3             0.00001     2.10143
   42. RY ( 6) N  3             0.00000     2.16278
   43. RY ( 7) N  3             0.00000     1.86262
   44. RY ( 8) N  3             0.00000     1.34843
   45. RY ( 9) N  3             0.00000     1.94635
   46. RY ( 1) H  4             0.00646     0.34770
   47. RY ( 2) H  4             0.00013     1.74345
   48. RY ( 3) H  4             0.00006     1.54358
   49. RY ( 4) H  4             0.00005     2.13239
   50. RY ( 1) H  5             0.00174     0.54940
   51. RY ( 2) H  5             0.00086     1.57194
   52. RY ( 3) H  5             0.00021     1.72820
   53. RY ( 4) H  5             0.00001     2.10920
   54. RY ( 1) H  6             0.00168     0.54691
   55. RY ( 2) H  6             0.00086     1.57667
   56. RY ( 3) H  6             0.00021     1.73001
   57. RY ( 4) H  6             0.00001     2.11470
          -------------------------------
                 Total Lewis   23.72162  ( 98.8401%)
           Valence non-Lewis    0.22803  (  0.9501%)
           Rydberg non-Lewis    0.05035  (  0.2098%)
          -------------------------------
               Total unit  1   24.00000  (100.0000%)
              Charge unit  1    0.00000

 $CHOOSE
   LONE 2 2 3 1 END
   BOND D 1 2 S 1 3 S 1 4 S 3 5 S 3 6 END
 $END

 NBO analysis completed in 0.06 CPU seconds (0 wall seconds)
 Maximum scratch memory used by NBO was 314177 words (2.40 MB)
Stopping NBO...Storing NBOs: nbo.nbo

                                *** returned from  NBO  program ***

-------
TIMINGS
-------

Total SCF time: 0 days 0 hours 0 min 3 sec 

Total time                  ....       3.472 sec
Sum of individual times     ....       3.466 sec  ( 99.8%)

SCF preparation             ....       0.077 sec  (  2.2%)
Fock matrix formation       ....       3.267 sec  ( 94.1%)
  Startup                   ....       0.001 sec  (  0.0% of F)
  Split-RI-J                ....       0.190 sec  (  5.8% of F)
  Chain of spheres X        ....       2.057 sec  ( 63.0% of F)
  XC integration            ....       1.004 sec  ( 30.7% of F)
    XC Preparation          ....       0.000 sec  (  0.0% of XC)
    Basis function eval.    ....       0.473 sec  ( 47.1% of XC)
    Density eval.           ....       0.145 sec  ( 14.5% of XC)
    XC-Functional eval.     ....       0.158 sec  ( 15.7% of XC)
    XC-Potential eval.      ....       0.165 sec  ( 16.4% of XC)
Diagonalization             ....       0.000 sec  (  0.0%)
Density matrix formation    ....       0.006 sec  (  0.2%)
Total Energy calculation    ....       0.002 sec  (  0.1%)
Population analysis         ....       0.073 sec  (  2.1%)
Orbital Transformation      ....       0.028 sec  (  0.8%)
Orbital Orthonormalization  ....       0.000 sec  (  0.0%)
DIIS solution               ....       0.009 sec  (  0.3%)
SOSCF solution              ....       0.004 sec  (  0.1%)
Finished LeanSCF after   3.5 sec

Maximum memory used throughout the entire LEANSCF-calculation: 8.1 MB

-------------------------   --------------------
FINAL SINGLE POINT ENERGY      -169.770678612180
-------------------------   --------------------


------------------------------------------------------------------------------
                              ORCA PROPERTY CALCULATIONS
------------------------------------------------------------------------------

GBWName                                 ... nbo.gbw
Number of atoms                         ...      6
Number of basis functions               ...     75
Max core memory                         ...   1024 MB

Electric properties:
Dipole moment                           ... YES
Quadrupole moment                       ...  NO
Static polarizability (Dipole/Dipole)   ...  NO
Static polarizability (Dipole/Quad.)    ...  NO
Static polarizability (Quad./Quad.)     ...  NO
Static polarizability (Velocity)        ...  NO

Atomic electric properties:
Dipole moment                           ...  NO
Quadrupole moment                       ...  NO
Static polarizability                   ...  NO

Choice of electric origin               ... Center of mass
Position of electric origin             ...     2.374506    -0.797336    -0.282070

General magnetic properties:
Magnetizability                         ...  NO

EPR properties:
g-Tensor (aka g-matrix)                 ...  NO
Zero-Field splitting spin-orbit         ...  NO
Zero-field splitting spin-spin          ...  NO
Hyperfine couplings                     ...  NO (   0 nuclei)
Quadrupole couplings                    ...  NO (   0 nuclei)
Contact density                         ...  NO (   0 nuclei)

NMR properties:
Chemical shifts                         ...  NO (   0 nuclei)
Spin-rotation constants                 ...  NO (   0 nuclei)
Spin-spin couplings                     ...  NO (   0 nuclei,    0 pairs)

Choice of magnetic origin               ... GIAO
Position of magnetic origin             ...     0.000000     0.000000     0.000000

Properties with geometric perturbations:
SCF Hessian                             ...  NO
IR spectrum                             ...  NO
VCD spectrum                            ...  NO
X-ray spectroscopy properties:
SCF XES/XAS/RIXS spectra                ...  NO


-------------
DIPOLE MOMENT
-------------

Method             : SCF
Type of density    : Electron Density
Multiplicity       :   1
Irrep              :   0
Energy             :  -169.7706786121798928 Eh
Relativity type    : 
Basis              : AO
                                X                 Y                 Z
Electronic contribution:     -1.446788706      -1.156332807      -0.588910119
Nuclear contribution   :      2.310909401       1.800297350       0.920773017
                        -----------------------------------------
Total Dipole Moment    :      0.864120694       0.643964544       0.331862898
                        -----------------------------------------
Magnitude (a.u.)       :      1.127620455
Magnitude (Debye)      :      2.866183417



--------------------
Rotational spectrum 
--------------------
 
Rotational constants in cm-1:             2.343244             0.365740             0.335788 
Rotational constants in MHz :         70248.679491         10964.618031         10066.656156 

Dipole components along the rotational axes: 
x,y,z [a.u.] :     1.098334    -0.255293    -0.004019 
x,y,z [Debye]:     2.791743    -0.648903    -0.010216 

 

Dipole moment calculation done in   0.0 sec 

Maximum memory used throughout the entire PROP-calculation: 4.7 MB

--------------------------------
SUGGESTED CITATIONS FOR THIS RUN
--------------------------------

Below you find a list of papers that are relevant to this ORCA run
We neither can nor want to force you to cite these papers, but we appreciate if you do
You receive ORCA, which is the product of decades of hard work by many enthusiastic individuals, for free
The only thing we kindly ask in return is that you cite our papers,
We deeply appreciate it, if you show your appreciation for ORCA by not just citing the generic ORCA reference.

Please note that relegating all ORCA citations to the supporting information does *not* help us.
SI sections are not indexed - citations you put there will not count into any citation statistics
But we need these citations in order to attract the funding resources that allow us to do what we are doing

Therefore, if you are a happy ORCA user, please consider citing a few of the papers listed below in the main body of your paper

In addition to the list printed below, the program has created the file nbo.bibtex that contains the list in bibtex format
You can import this file easily into all common literature databanks and citation aid programs


List of essential papers. We consider these as the minimum necessary citations

  1. Neese,F.
     Software update: the ORCA program system, version 5.0
     WIRES Comput. Molec. Sci., 2022 12(1)e1606
     doi.org/10.1002/wcms.1606

List of papers to cite with high priority. The work reported in these papers was absolutely
necessary for this run to complete.
Our perspective: the developers of density functionals and basis sets usually get cited in chemistry papers
Good! But without the algorithms to do something with them, the functionals or basis sets would not do anything.
Hence, in our opinion, the algorithm design and method developments papers are equally worthy of getting cited

  1. Neese,F.
     An improvement of the resolution of the identity approximation for the formation of the Coulomb matrix
     J. Comp. Chem., 2003 24(14)1740-1747
     doi.org/10.1002/jcc.10318
  2. Neese,F.; Wennmohs,F.; Hansen,A.; Becker,U.
     Efficient, approximate and parallel Hartree-Fock and hybrid DFT calculations. A 'chain-of-spheres' algorithm for the Hartree-Fock exchange
     Chem. Phys., 2009 356(1-3)98-109
     doi.org/10.1016/j.chemphys.2008.10.036
  3. Helmich-Paris,B.; de Souza,B.; Neese,F.; Izsák,R.
     An improved chain of spheres for exchange algorithm
     J. Chem. Phys., 2021 155 104109
     doi.org/doi: 10.1063/5.0058766.
  4. Neese,F.
     The SHARK Integral Generation and Digestion System
     J. Comp. Chem., 2022  1-16
     doi.org/10.1002/jcc.26942

List of suggested additional citations. These are papers that are important in the 'surrounding' of 
of this run, or papers that preceded the highly important papers. If you like your results we are grateful for a citation.

  1. Izsak,R.; Neese,F.
     An overlap fitted chain of spheres exchange method
     J. Chem. Phys., 2011 135 144105
     doi.org/10.1063/1.3646921
  2. Izsak,R.; Hansen,A.; Neese,F.
     The resolution of identity and chain of spheres approximations for the LPNO-CCSD singles Fock term
     Molec. Phys., 2012 110 2413-2417
     doi.org/10.1080/00268976.2012.687466
  3. Neese,F.
     The ORCA program system
     WIRES Comput. Molec. Sci., 2012 2(1)73-78
     doi.org/10.1002/wcms.81
  4. Izsak,R.; Neese,F.; Klopper,W.
     Robust fitting techniques in the chain of spheres approximation to the Fock exchange: The role of the complementary space
     J. Chem. Phys., 2013 139 
     doi.org/10.1063/1.4819264
  5. Neese,F.
     Software update: the ORCA program system, version 4.0
     WIRES Comput. Molec. Sci., 2018 8(1)1-6
     doi.org/10.1002/wcms.1327
  6. Neese,F.; Wennmohs,F.; Becker,U.; Riplinger,C.
     The ORCA quantum chemistry program package
     J. Chem. Phys., 2020 152 Art. No. L224108
     doi.org/10.1063/5.0004608

List of optional additional citations

  1. Neese,F.
     Approximate second-order SCF convergence for spin unrestricted wavefunctions
     Chem. Phys. Lett., 2000 325(1-3)93-98
     doi.org/10.1016/s0009-2614(00)00662-x

Timings for individual modules:

Sum of individual times          ...        4.860 sec (=   0.081 min)
Startup calculation              ...        1.024 sec (=   0.017 min)  21.1 %
SCF iterations                   ...        3.738 sec (=   0.062 min)  76.9 %
Property calculations            ...        0.098 sec (=   0.002 min)   2.0 %
                             ****ORCA TERMINATED NORMALLY****
TOTAL RUN TIME: 0 days 0 hours 0 minutes 5 seconds 257 msec
