
                                 *****************
                                 * O   R   C   A *
                                 *****************

                                            #,                                       
                                            ###                                      
                                            ####                                     
                                            #####                                    
                                            ######                                   
                                           ########,                                 
                                     ,,################,,,,,                         
                               ,,#################################,,                 
                          ,,##########################################,,             
                       ,#########################################, ''#####,          
                    ,#############################################,,   '####,        
                  ,##################################################,,,,####,       
                ,###########''''           ''''###############################       
              ,#####''   ,,,,##########,,,,          '''####'''          '####       
            ,##' ,,,,###########################,,,                        '##       
           ' ,,###''''                  '''############,,,                           
         ,,##''                                '''############,,,,        ,,,,,,###''
      ,#''                                            '''#######################'''  
     '                                                          ''''####''''         
             ,#######,   #######,   ,#######,      ##                                
            ,#'     '#,  ##    ##  ,#'     '#,    #''#        ,####,   ,####,        
            ##       ##  ##   ,#'  ##            #'  '#       #'       #'  '#        
            ##       ##  #######   ##           ,######,      #####,   #    #        
            '#,     ,#'  ##    ##  '#,     ,#' ,#      #,     #,   #   #,  ,#        
             '#######'   ##     ##  '#######'  #'      '#     '####' # '####'        



                #########################################################
                #                        -***-                          #
                #          Department of theory and spectroscopy        #
                #                                                       #
                #                      Frank Neese                      #
                #                                                       #
                #     Directorship, Architecture, Infrastructure        #
                #                    SHARK, DRIVERS                     #
                #        Core code/Algorithms in most modules           #
                #                                                       #
                #        Max Planck Institute fuer Kohlenforschung      #
                #                Kaiser Wilhelm Platz 1                 #
                #                 D-45470 Muelheim/Ruhr                 #
                #                      Germany                          #
                #                                                       #
                #                  All rights reserved                  #
                #                        -***-                          #
                #########################################################


                         Program Version 6.0.1  -  RELEASE   -


 With contributions from (in alphabetic order):
[Max-Planck-Institut fuer Kohlenforschung]                               
  Daniel Aravena         : Magnetic Suceptibility                        
  Michael Atanasov       : Ab Initio Ligand Field Theory (pilot matlab implementation)
  Alexander A. Auer      : GIAO ZORA, VPT2 properties, NMR spectrum      
  Ute Becker             : All parallelization in ORCA, NUMFREQ, NUMCALC 
  Giovanni Bistoni       : ED, misc. LED, open-shell LED, HFLD           
  Martin Brehm           : Molecular dynamics                            
  Dmytro Bykov           : pre 5.0 version of the SCF Hessian            
  Marcos Casanova-Páez   : Triplet and SCS-CIS(D). UHF-(DLPNO)-IP/EA/STEOM-CCSD. UHF-CVS-IP/STEOM-CCSD   
  Vijay G. Chilkuri      : MRCI spin determinant printing, contributions to CSF-ICE 
  Pauline Colinet        : FMM embedding                                 
  Dipayan Datta          : RHF DLPNO-CCSD density                        
  Achintya Kumar Dutta   : EOM-CC, STEOM-CC                              
  Nicolas Foglia         : Exact transition moments, OPA infrastructure, MCD improvements    
  Dmitry Ganyushin       : Spin-Orbit,Spin-Spin,Magnetic field MRCI      
  Miquel Garcia-Rates    : C-PCM and meta-GGA Hessian, CCSD/C-PCM, Gaussian charge scheme 
  Tiago L. C. Gouveia    : GS-ROHF, GS-ROCIS                             
  Yang Guo               : DLPNO-NEVPT2, F12-NEVPT2, CIM, IAO-localization        
  Andreas Hansen         : Spin unrestricted coupled pair/coupled cluster methods 
  Ingolf Harden          : AUTO-CI MPn and infrastructure                
  Benjamin Helmich-Paris : MC-RPA, TRAH-(SCF,CASSCF), AVAS, COSX integrals, SCF dyn. polar. 
  Lee Huntington         : MR-EOM, pCC                                   
  Robert Izsak           : Overlap fitted RIJCOSX, COSX-SCS-MP3, EOM     
  Riya Kayal             : Wick's Theorem for AUTO-CI, AUTO-CI UHF-CCSDT 
  Emily Kempfer          : AUTO-CI, RHF CISDT and CCSDT                  
  Christian Kollmar      : KDIIS, OOCD, Brueckner-CCSD(T), CCSD density, CASPT2, CASPT2-K, improved NEVPT2 
  Axel Koslowski         : Symmetry handling                             
  Simone Kossmann        : meta-GGA functionals, TD-DFT gradient, OOMP2, (MP2 Hessian; deprecated post 5.0) 
  Lucas Lang             : DCDCAS                                        
  Marvin Lechner         : AUTO-CI (C++ implementation), FIC-MRCC        
  Spencer Leger          : CASSCF response                               
  Dagmar Lenk            : GEPOL surface, SMD, ORCA-2-JSON               
  Dimitrios Liakos       : Extrapolation schemes; Compound Job, initial MDCI parallelization 
  Dimitrios Manganas     : Further ROCIS development; embedding schemes. LFT, Crystal Embedding 
  Dimitrios Pantazis     : SARC Basis sets                               
  Anastasios Papadopoulos: AUTO-CI, single reference methods and gradients 
  Taras Petrenko         : pre 6.0 DFT Hessian and TD-DFT gradient, (ASA, deprecated), ECA, 1-Electron XAS/XES, NRVS 
  Peter Pinski           : DLPNO-MP2, DLPNO-MP2 Gradient                 
  Christoph Reimann      : Effective Core Potentials                     
  Marius Retegan         : Local ZFS, SOC                                
  Christoph Riplinger    : Optimizer, TS searches, QM/MM, DLPNO-CCSD(T), (RO)-DLPNO pert. Triples 
  Michael Roemelt        : Original ROCIS implementation                 
  Masaaki Saitow         : Open-shell DLPNO-CCSD energy and density      
  Barbara Sandhoefer     : DKH picture change effects                    
  Kantharuban Sivalingam : CASSCF convergence/infrastructure, NEVPT2 and variants, FIC-MRCI 
  Bernardo de Souza      : ESD, SOC TD-DFT                               
  Georgi L. Stoychev     : AutoAux, RI-MP2 NMR, DLPNO-MP2 response, X2C  
  Van Anh Tran           : RI-MP2 g-tensors                              
  Willem Van den Heuvel  : Paramagnetic NMR                              
  Zikuan Wang            : NOTCH, Electric field optimization            
  Frank Wennmohs         : Technical directorship and infrastructure     
  Hang Xu                : AUTO-CI-Response properties                   
                                                                         
[FACCTs GmbH]                                                            
  Markus Bursch, Miquel Garcia-Rates, Christoph Riplinger, Bernardo de Souza, Georgi L. Stoychev 
                                                                 
  APM, Basis sets (HGBS, AHGBS, def-TZVP (Ac-Lr), def2-XVPD (La-Lu)), CI-OPT, improved COSX, DLPNO-Multilevel,           
  DOCKER, DRACO, updates on ESD, GOAT, IRC, LR-CPCM, MBIS, meta-GGA TD-DFT gradient, ML-optimized integration grids, 
  MM, NACMEs, nearIR, NEB, NEB-TS, NL-DFT gradient (VV10), 2- and 3-layer-ONIOM, interface openCOSMO-RS, QMMM,   
  Crystal-QMMM, SF, symmetry and pop. for TD-DFT, r2SCAN hybrids, SOLVATOR                                   
                                                                         
[Other institutions]                                                     
  V. Asgeirsson          : NEB                                           
  Christoph Bannwarth    : sTDA-DFT, sTD-DFT, PBEh-3c, B97-3c, D3        
  Sebastian Ehlert       : rSCAN, r2SCAN, r2SCAN-3c, D4, dhf basis sets  
  Marvin Friede          : D4 for Fr, Ra, Ac-Lr                          
  Lars Goerigk           : TD-DFT with DH, B97 family of functionals     
  Stefan Grimme          : VdW corrections, initial TS optimization, DFT functionals, gCP, sTDA/sTD-DF 
  Waldemar Hujo          : DFT-NL                                        
  H. Jonsson             : NEB                                           
  Holger Kruse           : gCP                                           
  Marcel Mueller         : wB97X-3c, vDZP basis set                      
  Hagen Neugebauer       : wr2SCAN                                       
  Tobias Risthaus        : range-separated hybrid DFT                    
  Lukas Wittmann         : regularized MP2, r2SCAN double-hybrids, wr2SCAN        
                                                                         
We gratefully acknowledge several colleagues who have allowed us to      
interface, adapt or use parts of their codes:                            
  Ed Valeev, F. Pavosevic, A. Kumar             : LibInt (2-el integral package), F12 methods 
  Garnet Chan, S. Sharma, J. Yang, R. Olivares  : DMRG                   
  Ulf Ekstrom                                   : XCFun DFT Library      
  Mihaly Kallay                                 : mrcc  (arbitrary order and MRCC methods)
  Frank Weinhold                                : gennbo (NPA and NBO analysis)           
  Simon Mueller                                 : openCOSMO-RS                            
  Christopher J. Cramer and Donald G. Truhlar   : smd solvation model                     
  S Lehtola, MJT Oliveira, MAL Marques          : LibXC Library                           
  Liviu Ungur et al                             : ANISO software                          


 Your calculation uses the libint2 library for the computation of 2-el integrals
 For citations please refer to: http://libint.valeyev.net

 Your ORCA version has been built with support for libXC version: 6.2.2
 For citations please refer to: https://libxc.gitlab.io

 This ORCA versions uses:
   CBLAS   interface :  Fast vector & matrix operations
   LAPACKE interface :  Fast linear algebra routines
   SCALAPACK package :  Parallel linear algebra routines
   Shared memory     :  Shared parallel matrices
   BLAS/LAPACK       :  OpenBLAS 0.3.27  USE64BITINT DYNAMIC_ARCH NO_AFFINITY Haswell SINGLE_THREADED
        Core in use  :  Haswell
   Copyright (c) 2011-2014, The OpenBLAS Project




***************************************
The coordinates will be read from file: dihedral.xyz
***************************************


================================================================================

----- Orbital basis set information -----
Your calculation utilizes the basis: cc-pVDZ 
       H, B-Ne : Obtained from the ccRepo (grant-hill.group.shef.ac.uk/ccrepo) Feb. 2017
                 T. H. Dunning, Jr., J. Chem. Phys. 90, 1007 (1989)
            He : Obtained from the ccRepo (grant-hill.group.shef.ac.uk/ccrepo) Feb. 2017
                 D. E. Woon, T. H. Dunning, Jr., J. Chem. Phys. 100, 2975 (1994)
  Li-Be, Na-Mg : Obtained from the ccRepo (grant-hill.group.shef.ac.uk/ccrepo) Feb. 2017
                 B. P. Prascher, D. E. Woon, K. A. Peterson, T. H. Dunning, Jr., A. K. Wilson, Theor. Chem. Acc. 128, 69 (2011)
         Al-Ar : Obtained from the ccRepo (grant-hill.group.shef.ac.uk/ccrepo) Feb. 2017
                 D. E. Woon, T. H. Dunning, Jr., J. Chem. Phys. 98, 1358 (1993)
            Ca : Obtained from the Peterson Research Group Website (tyr0.chem.wsu.edu/~kipeters) Feb. 2017
                 J. Koput, K. A. Peterson, J. Phys. Chem. 106, 9595 (2002)
         Sc-Zn : Obtained from the ccRepo (grant-hill.group.shef.ac.uk/ccrepo) Feb. 2017
                 N. B. Balabanov, K. A. Peterson, J. Chem. Phys. 123, 064107 (2005)
                 N. B. Balabanov, K. A. Peterson, J. Chem. Phys. 125, 074110 (2006)
         Ga-Kr : Obtained from the ccRepo (grant-hill.group.shef.ac.uk/ccrepo) Feb. 2017
                 A. K. Wilson, D. E. Woon, K. A. Peterson, T. H. Dunning, Jr., J. Chem. Phys. 110, 7667 (1999)

----- AuxJ basis set information -----
Your calculation utilizes the auxiliary basis: def2/J
   F. Weigend, Phys. Chem. Chem. Phys. 8, 1057 (2006).

================================================================================
                                        WARNINGS
                       Please study these warnings very carefully!
================================================================================


================================================================================
                                       INPUT FILE
================================================================================
NAME = nbo.com
|  1> ! B3LYP cc-pVDZ def2/J RIJCOSX NBO
|  2> 
|  3> * xyzfile 0 1 dihedral.xyz
|  4> 
|  5>                          ****END OF INPUT****
================================================================================

                       ****************************
                       * Single Point Calculation *
                       ****************************

---------------------------------
CARTESIAN COORDINATES (ANGSTROEM)
---------------------------------
  C      0.988460   -0.141873   -0.002458
  O      0.345507   -1.054737   -0.479810
  N      2.349165   -0.077949    0.031473
  H      0.520676    0.758318    0.469698
  H      2.827503    0.599521   -0.553136
  H      2.892148   -0.690449    0.626113

----------------------------
CARTESIAN COORDINATES (A.U.)
----------------------------
  NO LB      ZA    FRAG     MASS         X           Y           Z
   0 C     6.0000    0    12.011    1.867919   -0.268102   -0.004644
   1 O     8.0000    0    15.999    0.652913   -1.993165   -0.906710
   2 N     7.0000    0    14.007    4.439278   -0.147302    0.059476
   3 H     1.0000    0     1.008    0.983935    1.433013    0.887600
   4 H     1.0000    0     1.008    5.343206    1.132931   -1.045276
   5 H     1.0000    0     1.008    5.465368   -1.304760    1.183182

--------------------------------
INTERNAL COORDINATES (ANGSTROEM)
--------------------------------
 C      0   0   0     0.000000000000     0.00000000     0.00000000
 O      1   0   0     1.214320820051     0.00000000     0.00000000
 N      1   2   0     1.362628091244   125.01449517     0.00000000
 H      1   2   3     1.118971157173   123.31850457   180.10054251
 H      3   1   2     1.014663340287   119.19186817   110.05551276
 H      3   1   2     1.011723542772   121.47783727   290.05381362

---------------------------
INTERNAL COORDINATES (A.U.)
---------------------------
 C      0   0   0     0.000000000000     0.00000000     0.00000000
 O      1   0   0     2.294733788616     0.00000000     0.00000000
 N      1   2   0     2.574993914838   125.01449517     0.00000000
 H      1   2   3     2.114549038814   123.31850457   180.10054251
 H      3   1   2     1.917435831272   119.19186817   110.05551276
 H      3   1   2     1.911880419080   121.47783727   290.05381362

---------------------
BASIS SET INFORMATION
---------------------
There are 4 groups of distinct atoms

 Group   1 Type C   : 17s4p1d contracted to 3s2p1d pattern {881/31/1}
 Group   2 Type O   : 17s4p1d contracted to 3s2p1d pattern {881/31/1}
 Group   3 Type N   : 17s4p1d contracted to 3s2p1d pattern {881/31/1}
 Group   4 Type H   : 4s1p contracted to 2s1p pattern {31/1}

Atom   0C    basis set group =>   1
Atom   1O    basis set group =>   2
Atom   2N    basis set group =>   3
Atom   3H    basis set group =>   4
Atom   4H    basis set group =>   4
Atom   5H    basis set group =>   4
---------------------------------
AUXILIARY/J BASIS SET INFORMATION
---------------------------------
There are 4 groups of distinct atoms

 Group   1 Type C   : 12s5p4d2f1g contracted to 6s4p3d1f1g pattern {711111/2111/211/2/1}
 Group   2 Type O   : 12s5p4d2f1g contracted to 6s4p3d1f1g pattern {711111/2111/211/2/1}
 Group   3 Type N   : 12s5p4d2f1g contracted to 6s4p3d1f1g pattern {711111/2111/211/2/1}
 Group   4 Type H   : 5s2p1d contracted to 3s1p1d pattern {311/2/1}

Atom   0C    basis set group =>   1
Atom   1O    basis set group =>   2
Atom   2N    basis set group =>   3
Atom   3H    basis set group =>   4
Atom   4H    basis set group =>   4
Atom   5H    basis set group =>   4
------------------------------------------------------------------------------
                             ORCA STARTUP CALCULATIONS
                           -- RI-GTO INTEGRALS CHOSEN --
------------------------------------------------------------------------------
------------------------------------------------------------------------------
                   ___                                                        
                  /   \      - P O W E R E D   B Y -                         
                 /     \                                                     
                 |  |  |   _    _      __       _____    __    __             
                 |  |  |  | |  | |    /  \     |  _  \  |  |  /  |          
                  \  \/   | |  | |   /    \    | | | |  |  | /  /          
                 / \  \   | |__| |  /  /\  \   | |_| |  |  |/  /          
                |  |  |   |  __  | /  /__\  \  |    /   |      \           
                |  |  |   | |  | | |   __   |  |    \   |  |\   \          
                \     /   | |  | | |  |  |  |  | |\  \  |  | \   \       
                 \___/    |_|  |_| |__|  |__|  |_| \__\ |__|  \__/        
                                                                              
                      - O R C A' S   B I G   F R I E N D -                    
                                      &                                       
                       - I N T E G R A L  F E E D E R -                       
                                                                              
 v1 FN, 2020, v2 2021, v3 2022-2024                                           
------------------------------------------------------------------------------


----------------------
SHARK INTEGRAL PACKAGE
----------------------

Number of atoms                             ...      6
Number of basis functions                   ...     75
Number of shells                            ...     45
Maximum angular momentum                    ...      2
Integral batch strategy                     ... SHARK/LIBINT Hybrid
RI-J (if used) integral strategy            ... SPLIT-RIJ (Revised 2003 algorithm where possible)
Printlevel                                  ...      1
Contraction scheme used                     ... PARTIAL GENERAL contraction
Prescreening option                         ... SCHWARTZ
   Thresh                                   ... 1.000e-10
   Tcut                                     ... 1.000e-11
   Tpresel                                  ... 1.000e-11 
Coulomb Range Separation                    ... NOT USED
Exchange Range Separation                   ... NOT USED
Multipole approximations                    ... NOT USED
Finite Nucleus Model                        ... NOT USED
CABS basis                                  ... NOT available
Auxiliary Coulomb fitting basis             ... AVAILABLE
   # of basis functions in Aux-J            ...    180
   # of shells in Aux-J                     ...     60
   Maximum angular momentum in Aux-J        ...      4
Auxiliary J/K fitting basis                 ... NOT available
Auxiliary Correlation fitting basis         ... NOT available
Auxiliary 'external' fitting basis          ... NOT available

Checking pre-screening integrals            ... done (  0.0 sec) Dimension = 45
Save PGC pre-screening integrals            ... done (  0.0 sec) Dimension = 45
Calculate PGC overlap integrals             ... done (  0.0 sec) Dimension = 27
Calculating pre-screening integrals (ORCA)  ... done (  0.0 sec) Dimension = 27
Check shell pair data                       ... done (  0.0 sec)
Shell pair information
Shell pair cut-off parameter TPreSel        ...   1.0e-11
Total number of shell pairs                 ...      1035
Shell pairs after pre-screening             ...       909
Total number of primitive shell pairs       ...      1671
Primitive shell pairs kept                  ...      1387
          la=0 lb=0:    435 shell pairs
          la=1 lb=0:    297 shell pairs
          la=1 lb=1:     45 shell pairs
          la=2 lb=0:     99 shell pairs
          la=2 lb=1:     27 shell pairs
          la=2 lb=2:      6 shell pairs

Calculating one electron integrals          ... done (  0.0 sec)
Calculating RI/J V-Matrix + Cholesky decomp.... done (  0.0 sec)
Calculating Nuclear repulsion               ... done (  0.0 sec) ENN=     70.899591432989 Eh

Diagonalization of the overlap matrix:
Smallest eigenvalue                        ... 7.861e-03
Time for diagonalization                   ...    0.000 sec
Threshold for overlap eigenvalues          ... 1.000e-07
Number of eigenvalues below threshold      ... 0
Time for construction of square roots      ...    0.000 sec
Total time needed                          ...    0.001 sec

-------------------
DFT GRID GENERATION
-------------------

General Integration Accuracy     IntAcc      ... 4.388
Radial Grid Type                 RadialGrid  ... OptM3 with GC (2021)
Angular Grid (max. ang.)         AngularGrid ... 4 (Lebedev-302)
Angular grid pruning method      GridPruning ... 4 (adaptive)
Weight generation scheme         WeightScheme... mBecke (2022)
Basis function cutoff            BFCut       ... 1.0000e-10
Integration weight cutoff        WCut        ... 1.0000e-14
Partially contracted basis set               ... off
Rotationally invariant grid construction     ... off
Angular grids for H and He will be reduced by one unit

Total number of grid points                  ...    28131
Total number of batches                      ...      444
Average number of points per batch           ...       63
Average number of grid points per atom       ...     4688

---------------------
SHARK GRID GENERATION
---------------------

General Integration Accuracy     IntAcc      ... 4.388
Radial Grid Type                 RadialGrid  ... OptM3 with GC (2021)
Angular Grid (max. ang.)         AngularGrid ... 4 (Lebedev-302)
Angular grid pruning method      GridPruning ... 4 (adaptive)
Weight generation scheme         WeightScheme... mBecke (2022)
Basis function cutoff            BFCut       ... 1.0000e-10
Integration weight cutoff        WCut        ... 1.0000e-14
Partially contracted basis set               ... off
Rotationally invariant grid construction     ... off
Angular grids for H and He will be reduced by one unit
Steep s-basis detected: some atoms will have their radial
                        grid points doubled.

Total number of grid points                  ...    46720
Total number of batches                      ...      734
Average number of points per batch           ...       63
Average number of grid points per atom       ...     7787

--------------------
COSX GRID GENERATION
--------------------

GRIDX 1
-------
General Integration Accuracy     IntAcc      ... 3.816
Radial Grid Type                 RadialGrid  ... OptM3 with GC (2021)
Angular Grid (max. ang.)         AngularGrid ... 1 (Lebedev-50)
Angular grid pruning method      GridPruning ... 4 (adaptive)
Weight generation scheme         WeightScheme... mBecke (2022)
Basis function cutoff            BFCut       ... 1.0000e-10
Integration weight cutoff        WCut        ... 1.0000e-14
Partially contracted basis set               ... on
Rotationally invariant grid construction     ... off
Angular grids for H and He will be reduced by one unit

Total number of grid points                  ...     3601
Total number of batches                      ...       32
Average number of points per batch           ...      112
Average number of grid points per atom       ...      600
UseSFitting                                  ... on

GRIDX 2
-------
General Integration Accuracy     IntAcc      ... 4.020
Radial Grid Type                 RadialGrid  ... OptM3 with GC (2021)
Angular Grid (max. ang.)         AngularGrid ... 2 (Lebedev-110)
Angular grid pruning method      GridPruning ... 4 (adaptive)
Weight generation scheme         WeightScheme... mBecke (2022)
Basis function cutoff            BFCut       ... 1.0000e-10
Integration weight cutoff        WCut        ... 1.0000e-14
Partially contracted basis set               ... on
Rotationally invariant grid construction     ... off
Angular grids for H and He will be reduced by one unit

Total number of grid points                  ...     7963
Total number of batches                      ...       67
Average number of points per batch           ...      118
Average number of grid points per atom       ...     1327
UseSFitting                                  ... on

GRIDX 3
-------
General Integration Accuracy     IntAcc      ... 4.338
Radial Grid Type                 RadialGrid  ... OptM3 with GC (2021)
Angular Grid (max. ang.)         AngularGrid ... 3 (Lebedev-194)
Angular grid pruning method      GridPruning ... 4 (adaptive)
Weight generation scheme         WeightScheme... mBecke (2022)
Basis function cutoff            BFCut       ... 1.0000e-10
Integration weight cutoff        WCut        ... 1.0000e-14
Partially contracted basis set               ... on
Rotationally invariant grid construction     ... off
Angular grids for H and He will be reduced by one unit

Total number of grid points                  ...    17626
Total number of batches                      ...      141
Average number of points per batch           ...      125
Average number of grid points per atom       ...     2938
UseSFitting                                  ... on
Initializing property integral containers    ... done (  0.0 sec)

SHARK setup successfully completed in   0.8 seconds

Maximum memory used throughout the entire STARTUP-calculation: 19.6 MB
-------------------------------------------------------------------------------
                                 ORCA GUESS
                   Start orbitals & Density for SCF / CASSCF
-------------------------------------------------------------------------------

------------
SCF SETTINGS
------------
Hamiltonian:
 Density Functional     Method          .... DFT(GTOs)
 Exchange Functional    Exchange        .... B88
   X-Alpha parameter    XAlpha          ....  0.666667
   Becke's b parameter  XBeta           ....  0.004200
 Correlation Functional Correlation     .... LYP
 LDA part of GGA corr.  LDAOpt          .... VWN-5
 Gradients option       PostSCFGGA      .... off
 Hybrid DFT is turned on
   Fraction HF Exchange ScalHFX         ....  0.200000
   Scaling of DF-GGA-X  ScalDFX         ....  0.720000
   Scaling of DF-GGA-C  ScalDFC         ....  0.810000
   Scaling of DF-LDA-C  ScalLDAC        ....  1.000000
   Perturbative correction              ....  0.000000
   NL short-range parameter             ....  4.800000
 RI-approximation to the Coulomb term is turned on
   Number of AuxJ basis functions       .... 180
   RIJ-COSX (HFX calculated with COS-X)).... on


General Settings:
 Integral files         IntName         .... nbo
 Hartree-Fock type      HFTyp           .... RHF
 Total Charge           Charge          ....    0
 Multiplicity           Mult            ....    1
 Number of Electrons    NEL             ....   24
 Basis Dimension        Dim             ....   57
 Nuclear Repulsion      ENuc            ....     70.8995914330 Eh

Convergence Acceleration:
 AO-DIIS                CNVDIIS         .... on
   Start iteration      DIISMaxIt       ....    12
   Startup error        DIISStart       ....  0.200000
   # of expansion vecs  DIISMaxEq       ....     5
   Bias factor          DIISBfac        ....   1.050
   Max. coefficient     DIISMaxC        ....  10.000
 MO-DIIS                CNVKDIIS        .... off
 Trust-Rad. Augm. Hess. CNVTRAH         .... auto
   Auto Start mean grad. ratio tolernc. ....  1.125000
   Auto Start start iteration           ....    50
   Auto Start num. interpolation iter.  ....    10
   Max. Number of Micro iterations      ....    24
   Max. Number of Macro iterations      .... Maxiter - #DIIS iter
   Number of Davidson start vectors     ....     2
   Converg. threshold    (grad. norm)   ....   5.000e-05
   Grad. Scal. Fac. for Micro threshold ....   0.100
   Minimum threshold for Micro iter.    ....   1.000e-02
   NR start threshold (gradient norm)   ....   1.000e-04
   Initial trust radius                 ....   0.400
   Minimum AH scaling param. (alpha)    ....   1.000
   Maximum AH scaling param. (alpha)    .... 1000.000
   Quad. conv. algorithm                .... NR
   White noise on init. David. guess    .... on
   Maximum white noise                  ....   0.010
   Pseudo random numbers                .... off
   Inactive MOs                         .... canonical
   Orbital update algorithm             .... Taylor
   Preconditioner                       .... Diag
   Full preconditioner red. dimension   ....   250
 SOSCF                  CNVSOSCF        .... on
   Start iteration      SOSCFMaxIt      ....   150
   Startup grad/error   SOSCFStart      ....  0.003300
   Hessian update       SOSCFHessUp     .... L-BFGS
 Level Shifting         CNVShift        .... on
   Level shift para.    LevelShift      ....    0.2500
   Turn off err/grad.   ShiftErr        ....    0.0010
 Zerner damping         CNVZerner       .... off
 Static damping         CNVDamp         .... on
   Fraction old density DampFac         ....    0.7000
   Max. Damping (<1)    DampMax         ....    0.9800
   Min. Damping (>=0)   DampMin         ....    0.0000
   Turn off err/grad.   DampErr         ....    0.1000

SCF Procedure:
 Maximum # iterations   MaxIter         ....   125
 SCF integral mode      SCFMode         .... Direct
   Integral package                     .... SHARK and LIBINT hybrid scheme
 Reset frequency        DirectResetFreq ....    20
 Integral Threshold     Thresh          ....  1.000e-10 Eh
 Primitive CutOff       TCut            ....  1.000e-11 Eh

Convergence Tolerance:
 Convergence Check Mode ConvCheckMode   .... Total+1el-Energy
 Convergence forced     ConvForced      .... 0
 Energy Change          TolE            ....  1.000e-06 Eh
 1-El. energy change                    ....  1.000e-03 Eh
 Orbital Gradient       TolG            ....  5.000e-05
 Orbital Rotation angle TolX            ....  5.000e-05
 DIIS Error             TolErr          ....  1.000e-06

------------------------------
INITIAL GUESS: MODEL POTENTIAL
------------------------------
Loading Hartree-Fock densities                     ... done
Calculating cut-offs                               ... done
Initializing the effective Hamiltonian             ... done
Setting up the integral package (SHARK)            ... done
Starting the Coulomb interaction                   ... done (   0.0 sec)
Making the grid                                    ... done (   0.0 sec)
Mapping shells                                     ... done
Starting the XC term evaluation                    ... done (   0.0 sec)
  promolecular density results
     # of electrons  =     23.999165616
     EX              =    -20.784857242
     EC              =     -0.816709439
     EX+EC           =    -21.601566680
Transforming the Hamiltonian                       ... done (   0.0 sec)
Diagonalizing the Hamiltonian                      ... done (   0.0 sec)
Back transforming the eigenvectors                 ... done (   0.0 sec)
Now organizing SCF variables                       ... done
                      ------------------
                      INITIAL GUESS DONE (   0.1 sec)
                      ------------------
             **** ENERGY FILE WAS UPDATED (nbo.en.tmp) ****
Finished Guess after   0.1 sec
Maximum memory used throughout the entire GUESS-calculation: 7.5 MB

-------------------------------------------------------------------------------------------
                                      ORCA LEAN-SCF
                              memory conserving SCF solver
-------------------------------------------------------------------------------------------

----------------------------------------D-I-I-S--------------------------------------------
Iteration    Energy (Eh)           Delta-E    RMSDP     MaxDP     DIISErr   Damp  Time(sec)
-------------------------------------------------------------------------------------------
               ***  Starting incremental Fock matrix formation  ***
    1    -169.6114989460282629     0.00e+00  7.47e-03  9.46e-02  2.61e-01  0.700   0.5
    2    -169.6936655563732188    -8.22e-02  4.58e-03  5.50e-02  1.28e-01  0.700   0.3
                               ***Turning on AO-DIIS***
    3    -169.7204842682030517    -2.68e-02  1.51e-03  1.91e-02  4.47e-02  0.700   0.3
    4    -169.7376643068560611    -1.72e-02  2.08e-03  2.01e-02  1.57e-02  0.000   0.2
    5    -169.7770241393801030    -3.94e-02  6.54e-04  6.72e-03  1.10e-02  0.000   0.2
                              *** Initializing SOSCF ***
---------------------------------------S-O-S-C-F--------------------------------------
Iteration    Energy (Eh)           Delta-E    RMSDP     MaxDP     MaxGrad    Time(sec)
--------------------------------------------------------------------------------------
    6    -169.7772803044560135    -2.56e-04  2.13e-04  2.46e-03  1.94e-03     0.2
               *** Restarting incremental Fock matrix formation ***
    7    -169.7772862498147788    -5.95e-06  1.58e-04  1.89e-03  3.36e-04     0.4
    8    -169.7772876195479341    -1.37e-06  3.48e-05  3.75e-04  2.53e-04     0.4
    9    -169.7772882032984114    -5.84e-07  1.88e-05  1.97e-04  7.36e-05     0.3
                 **** Energy Check signals convergence ****

               *****************************************************
               *                     SUCCESS                       *
               *           SCF CONVERGED AFTER   9 CYCLES          *
               *****************************************************

Recomputing exchange energy using gridx3       ... done (    0.512 sec)
Old exchange energy                            :     -4.217787751 Eh
New exchange energy                            :     -4.217808068 Eh
Exchange energy change after final integration :     -0.000020317 Eh
Total energy after final integration           :   -169.777308520 Eh
             **** ENERGY FILE WAS UPDATED (nbo.en.tmp) ****

----------------
TOTAL SCF ENERGY
----------------

Total Energy       :       -169.77730852035810 Eh           -4619.87543 eV

Components:
Nuclear Repulsion  :         70.89959143298907 Eh            1929.27597 eV
Electronic Energy  :       -240.67687963628748 Eh           -6549.15085 eV
One Electron Energy:       -371.35648118825685 Eh          -10105.12359 eV
Two Electron Energy:        130.67960155196937 Eh            3555.97274 eV

Virial components:
Potential Energy   :       -338.64887206089259 Eh           -9215.10430 eV
Kinetic Energy     :        168.87156354053445 Eh            4595.22886 eV
Virial Ratio       :          2.00536351390864

DFT components:
N(Alpha)           :       12.000001162684 electrons
N(Beta)            :       12.000001162684 electrons
N(Total)           :       24.000002325369 electrons
E(X)               :      -16.783749819765 Eh       
E(C)               :       -0.970080398698 Eh       
E(XC)              :      -17.753830218463 Eh       

---------------
SCF CONVERGENCE
---------------

  Last Energy change         ...    5.8375e-07  Tolerance :   1.0000e-06
  Last MAX-Density change    ...    1.9683e-04  Tolerance :   1.0000e-05
  Last RMS-Density change    ...    1.8845e-05  Tolerance :   1.0000e-06
  Last DIIS Error            ...    1.9369e-03  Tolerance :   1.0000e-06
  Last Orbital Gradient      ...    7.3590e-05  Tolerance :   5.0000e-05
  Last Orbital Rotation      ...    9.6470e-05  Tolerance :   5.0000e-05


----------------
ORBITAL ENERGIES
----------------

  NO   OCC          E(Eh)            E(eV) 
   0   2.0000     -19.130505      -520.5675 
   1   2.0000     -14.323089      -389.7511 
   2   2.0000     -10.291649      -280.0500 
   3   2.0000      -1.043290       -28.3894 
   4   2.0000      -0.891350       -24.2549 
   5   2.0000      -0.610478       -16.6120 
   6   2.0000      -0.527911       -14.3652 
   7   2.0000      -0.495478       -13.4826 
   8   2.0000      -0.438841       -11.9415 
   9   2.0000      -0.368594       -10.0299 
  10   2.0000      -0.261638        -7.1195 
  11   2.0000      -0.249481        -6.7887 
  12   0.0000      -0.019253        -0.5239 
  13   0.0000       0.056561         1.5391 
  14   0.0000       0.101156         2.7526 
  15   0.0000       0.124049         3.3756 
  16   0.0000       0.272494         7.4149 
  17   0.0000       0.348378         9.4799 
  18   0.0000       0.471509        12.8304 
  19   0.0000       0.473564        12.8863 
  20   0.0000       0.518116        14.0987 
  21   0.0000       0.555643        15.1198 
  22   0.0000       0.621957        16.9243 
*Only the first 10 virtual orbitals were printed.

                    ********************************
                    * MULLIKEN POPULATION ANALYSIS *
                    ********************************

-----------------------
MULLIKEN ATOMIC CHARGES
-----------------------
   0 C :    0.161443
   1 O :   -0.190747
   2 N :   -0.171609
   3 H :   -0.012041
   4 H :    0.106146
   5 H :    0.106808
Sum of atomic charges:   -0.0000000

--------------------------------
MULLIKEN REDUCED ORBITAL CHARGES
--------------------------------
  0 C s       :     3.054240  s :     3.054240
      pz      :     0.818060  p :     2.601966
      px      :     0.888346
      py      :     0.895559
      dz2     :     0.014990  d :     0.182351
      dxz     :     0.035791
      dyz     :     0.020165
      dx2y2   :     0.062125
      dxy     :     0.049280

  1 O s       :     3.748178  s :     3.748178
      pz      :     1.299196  p :     4.424347
      px      :     1.677380
      py      :     1.447772
      dz2     :     0.002757  d :     0.018221
      dxz     :     0.002648
      dyz     :     0.004081
      dx2y2   :     0.003691
      dxy     :     0.005044

  2 N s       :     3.286836  s :     3.286836
      pz      :     1.449871  p :     3.867340
      px      :     1.036465
      py      :     1.381004
      dz2     :     0.001317  d :     0.017433
      dxz     :     0.004650
      dyz     :     0.001509
      dx2y2   :     0.004492
      dxy     :     0.005465

  3 H s       :     0.987469  s :     0.987469
      pz      :     0.006002  p :     0.024572
      px      :     0.005587
      py      :     0.012982

  4 H s       :     0.836187  s :     0.836187
      pz      :     0.021199  p :     0.057667
      px      :     0.013977
      py      :     0.022490

  5 H s       :     0.835553  s :     0.835553
      pz      :     0.021214  p :     0.057639
      px      :     0.015118
      py      :     0.021307



                     *******************************
                     * LOEWDIN POPULATION ANALYSIS *
                     *******************************

----------------------
LOEWDIN ATOMIC CHARGES
----------------------
   0 C :   -0.096907
   1 O :   -0.009495
   2 N :    0.007432
   3 H :   -0.016962
   4 H :    0.058988
   5 H :    0.056945

-------------------------------
LOEWDIN REDUCED ORBITAL CHARGES
-------------------------------
  0 C s       :     2.854940  s :     2.854940
      pz      :     0.824089  p :     2.768651
      px      :     0.973870
      py      :     0.970691
      dz2     :     0.036675  d :     0.473317
      dxz     :     0.088113
      dyz     :     0.054113
      dx2y2   :     0.164739
      dxy     :     0.129677

  1 O s       :     3.506919  s :     3.506919
      pz      :     1.302636  p :     4.471343
      px      :     1.670962
      py      :     1.497745
      dz2     :     0.003859  d :     0.031232
      dxz     :     0.004179
      dyz     :     0.007128
      dx2y2   :     0.006201
      dxy     :     0.009865

  2 N s       :     2.981359  s :     2.981359
      pz      :     1.426461  p :     3.951079
      px      :     1.136806
      py      :     1.387812
      dz2     :     0.004749  d :     0.060130
      dxz     :     0.014634
      dyz     :     0.006483
      dx2y2   :     0.016052
      dxy     :     0.018213

  3 H s       :     0.942541  s :     0.942541
      pz      :     0.018245  p :     0.074422
      px      :     0.018123
      py      :     0.038054

  4 H s       :     0.796048  s :     0.796048
      pz      :     0.055161  p :     0.144965
      px      :     0.031857
      py      :     0.057947

  5 H s       :     0.796472  s :     0.796472
      pz      :     0.055375  p :     0.146583
      px      :     0.035760
      py      :     0.055448



                      *****************************
                      * MAYER POPULATION ANALYSIS *
                      *****************************

  NA   - Mulliken gross atomic population
  ZA   - Total nuclear charge
  QA   - Mulliken gross atomic charge
  VA   - Mayer's total valence
  BVA  - Mayer's bonded valence
  FA   - Mayer's free valence

  ATOM       NA         ZA         QA         VA         BVA        FA
  0 C      5.8386     6.0000     0.1614     4.3519     4.3519    -0.0000
  1 O      8.1907     8.0000    -0.1907     2.3196     2.3196    -0.0000
  2 N      7.1716     7.0000    -0.1716     3.1281     3.1281    -0.0000
  3 H      1.0120     1.0000    -0.0120     0.9688     0.9688    -0.0000
  4 H      0.8939     1.0000     0.1061     1.0164     1.0164    -0.0000
  5 H      0.8932     1.0000     0.1068     1.0201     1.0201    -0.0000

  Mayer bond orders larger than 0.100000
B(  0-C ,  1-O ) :   2.2210 B(  0-C ,  2-N ) :   1.1704 B(  0-C ,  3-H ) :   0.9229 
B(  2-N ,  4-H ) :   0.9701 B(  2-N ,  5-H ) :   0.9720 

Now starting NBO....

 *********************************** NBO 7.0 ***********************************
             N A T U R A L   A T O M I C   O R B I T A L   A N D
          N A T U R A L   B O N D   O R B I T A L   A N A L Y S I S
 **************************** Suman Saurav (S102030) ***************************
  (c) Copyright 1996-2020 Board of Regents of the University of Wisconsin System
      on behalf of the Theoretical Chemistry Institute.  All rights reserved.

          Cite this program [NBO 7.0.9 (21-May-2020)] as:

          NBO 7.0.  E. D. Glendening, J. K. Badenhoop, A. E. Reed,
          J. E. Carpenter, J. A. Bohmann, C. M. Morales, P. Karafiloglou,
          C. R. Landis, and F. Weinhold, Theoretical Chemistry Institute,
          University of Wisconsin, Madison, WI (2018)

       /NPA    / : Natural Population Analysis
       /NBO    / : Natural Bond Orbital Analysis
       /AONBO  / : Checkpoint the AO to NBO transformation
       /ARCHIVE/ : Write the archive file to lfn47

 Job title: ORCA Job: nbo


 NATURAL POPULATIONS:  Natural atomic orbital occupancies

  NAO Atom No lang   Type(AO)    Occupancy      Energy
 -------------------------------------------------------
   1    C  1  s      Cor( 1s)     1.99998     -10.29148
   2    C  1  s      Val( 2s)     0.88703      -0.11802
   3    C  1  s      Ryd( 3s)     0.01032       0.68245
   4    C  1  px     Val( 2p)     0.82020       0.03697
   5    C  1  px     Ryd( 3p)     0.00994       0.46589
   6    C  1  py     Val( 2p)     0.88984      -0.01229
   7    C  1  py     Ryd( 3p)     0.00867       0.58198
   8    C  1  pz     Val( 2p)     0.78048      -0.08769
   9    C  1  pz     Ryd( 3p)     0.00443       0.49405
  10    C  1  dxy    Ryd( 3d)     0.00242       1.92183
  11    C  1  dxz    Ryd( 3d)     0.00209       1.61712
  12    C  1  dyz    Ryd( 3d)     0.00155       1.67107
  13    C  1  dx2y2  Ryd( 3d)     0.00410       1.86431
  14    C  1  dz2    Ryd( 3d)     0.00133       1.55391

  15    O  2  s      Cor( 1s)     1.99999     -19.13030
  16    O  2  s      Val( 2s)     1.71935      -0.67935
  17    O  2  s      Ryd( 3s)     0.00102       1.93538
  18    O  2  px     Val( 2p)     1.80138      -0.26001
  19    O  2  px     Ryd( 3p)     0.00177       1.10386
  20    O  2  py     Val( 2p)     1.61187      -0.26490
  21    O  2  py     Ryd( 3p)     0.00091       1.04886
  22    O  2  pz     Val( 2p)     1.38745      -0.24402
  23    O  2  pz     Ryd( 3p)     0.00039       1.03689
  24    O  2  dxy    Ryd( 3d)     0.00212       2.99539
  25    O  2  dxz    Ryd( 3d)     0.00106       2.77708
  26    O  2  dyz    Ryd( 3d)     0.00160       2.89294
  27    O  2  dx2y2  Ryd( 3d)     0.00174       2.90093
  28    O  2  dz2    Ryd( 3d)     0.00110       2.77033

  29    N  3  s      Cor( 1s)     1.99998     -14.32295
  30    N  3  s      Val( 2s)     1.34393      -0.45800
  31    N  3  s      Ryd( 3s)     0.00033       1.38653
  32    N  3  px     Val( 2p)     1.33238      -0.20206
  33    N  3  px     Ryd( 3p)     0.00245       0.86535
  34    N  3  py     Val( 2p)     1.62272      -0.22115
  35    N  3  py     Ryd( 3p)     0.00312       0.93279
  36    N  3  pz     Val( 2p)     1.65272      -0.22628
  37    N  3  pz     Ryd( 3p)     0.00307       0.86998
  38    N  3  dxy    Ryd( 3d)     0.00047       2.31768
  39    N  3  dxz    Ryd( 3d)     0.00048       2.24757
  40    N  3  dyz    Ryd( 3d)     0.00121       2.27436
  41    N  3  dx2y2  Ryd( 3d)     0.00101       2.29822
  42    N  3  dz2    Ryd( 3d)     0.00028       2.03239

  43    H  4  s      Val( 1s)     0.88133       0.02363
  44    H  4  s      Ryd( 2s)     0.00619       0.33786
  45    H  4  px     Ryd( 2p)     0.00030       1.80109
  46    H  4  py     Ryd( 2p)     0.00075       1.98094
  47    H  4  pz     Ryd( 2p)     0.00030       1.66450

  48    H  5  s      Val( 1s)     0.59407       0.09451
  49    H  5  s      Ryd( 2s)     0.00156       0.36293
  50    H  5  px     Ryd( 2p)     0.00052       1.84977
  51    H  5  py     Ryd( 2p)     0.00101       1.91399
  52    H  5  pz     Ryd( 2p)     0.00100       1.83726

  53    H  6  s      Val( 1s)     0.59020       0.10240
  54    H  6  s      Ryd( 2s)     0.00202       0.35761
  55    H  6  px     Ryd( 2p)     0.00056       1.89257
  56    H  6  py     Ryd( 2p)     0.00094       1.87526
  57    H  6  pz     Ryd( 2p)     0.00097       1.85026


 Summary of Natural Population Analysis:

                                     Natural Population
             Natural    ---------------------------------------------
  Atom No    Charge        Core      Valence    Rydberg      Total
 --------------------------------------------------------------------
    C  1    0.57762      1.99998     3.37754    0.04486     5.42238
    O  2   -0.53175      1.99999     6.52006    0.01171     8.53175
    N  3   -0.96414      1.99998     5.95175    0.01241     7.96414
    H  4    0.11112      0.00000     0.88133    0.00755     0.88888
    H  5    0.40184      0.00000     0.59407    0.00409     0.59816
    H  6    0.40531      0.00000     0.59020    0.00449     0.59469
 ====================================================================
 * Total *  0.00000      5.99996    17.91494    0.08510    24.00000

                                 Natural Population
 ---------------------------------------------------------
   Core                       5.99996 ( 99.9993% of    6)
   Valence                   17.91494 ( 99.5275% of   18)
   Natural Minimal Basis     23.91490 ( 99.6454% of   24)
   Natural Rydberg Basis      0.08510 (  0.3546% of   24)
 ---------------------------------------------------------

    Atom No         Natural Electron Configuration
 ----------------------------------------------------------------------------
      C  1      [core]2s( 0.89)2p( 2.49)3s( 0.01)3p( 0.02)3d( 0.01)
      O  2      [core]2s( 1.72)2p( 4.80)3d( 0.01)
      N  3      [core]2s( 1.34)2p( 4.61)3p( 0.01)
      H  4            1s( 0.88)2s( 0.01)
      H  5            1s( 0.59)
      H  6            1s( 0.59)


 NATURAL BOND ORBITAL ANALYSIS:

                            Occupancies       Lewis Structure    Low   High
         Max    Occ     -------------------  -----------------   occ   occ
  Cycle  Ctr   Thresh    Lewis   non-Lewis     CR  BD  nC  LP    (L)   (NL)
 ============================================================================
    1     2     1.90    21.88388   2.11612      3   4   0   5     4      4
    2     2     1.89    22.99578   1.00422      3   6   0   3     1      2
    3     2     1.87    23.67803   0.32197      3   6   0   3     0      0
 ----------------------------------------------------------------------------

 Structure accepted: No low occupancy Lewis orbitals

 -------------------------------------------------------
   Core                      5.99996 ( 99.999% of   6)
   Valence Lewis            17.67807 ( 98.212% of  18)
  ==================      =============================
   Total Lewis              23.67803 ( 98.658% of  24)
  -----------------------------------------------------
   Valence non-Lewis         0.27129 (  1.130% of  24)
   Rydberg non-Lewis         0.05068 (  0.211% of  24)
  ==================      =============================
   Total non-Lewis           0.32197 (  1.342% of  24)
 -------------------------------------------------------


     (Occupancy)   Bond orbital / Coefficients / Hybrids
 ------------------ Lewis ------------------------------------------------------
   1. (1.99998) CR ( 1) C  1            s(100.00%)
                                         1.0000  0.0000  0.0000  0.0000  0.0000
                                         0.0000  0.0000  0.0000  0.0000  0.0000
                                         0.0000  0.0000  0.0000  0.0000
   2. (1.99999) CR ( 1) O  2            s(100.00%)
                                         1.0000  0.0000  0.0000  0.0000  0.0000
                                         0.0000  0.0000  0.0000  0.0000  0.0000
                                         0.0000  0.0000  0.0000  0.0000
   3. (1.99998) CR ( 1) N  3            s(100.00%)
                                         1.0000  0.0000  0.0000  0.0000  0.0000
                                         0.0000  0.0000  0.0000  0.0000  0.0000
                                         0.0000  0.0000  0.0000  0.0000
   4. (1.98217) LP ( 1) O  2            s( 58.77%)p 0.70( 41.20%)d 0.00(  0.03%)
                                         0.0000  0.7665 -0.0112 -0.3503  0.0032
                                        -0.4839  0.0042 -0.2348  0.0017 -0.0111
                                        -0.0054 -0.0094  0.0030  0.0062
   5. (1.87318) LP ( 2) O  2            s(  0.04%)p99.99( 99.86%)d 2.65(  0.10%)
                                         0.0000  0.0194 -0.0028  0.8491 -0.0081
                                        -0.4554  0.0056 -0.2648  0.0028  0.0126
                                         0.0067 -0.0121  0.0251 -0.0060
   6. (1.89350) LP ( 1) N  3            s(  0.00%)p 1.00( 99.99%)d 0.00(  0.01%)
                                         0.0000  0.0059  0.0001 -0.0392  0.0008
                                         0.6851 -0.0258  0.7262 -0.0303 -0.0020
                                        -0.0073  0.0006 -0.0008 -0.0001
   7. (1.99783) BD ( 1) C  1- O  2
               ( 32.96%)   0.5741* C  1 s( 32.23%)p 2.10( 67.55%)d 0.01(  0.23%)
                                         0.0000  0.5647  0.0587 -0.4083 -0.0419
                                        -0.5446 -0.0525 -0.4553 -0.0178  0.0322
                                         0.0225  0.0228 -0.0138  0.0004
               ( 67.04%)   0.8188* O  2 s( 40.41%)p 1.47( 59.38%)d 0.01(  0.21%)
                                         0.0000  0.6354  0.0205  0.3837  0.0077
                                         0.6480  0.0126  0.1625  0.0058  0.0335
                                         0.0144  0.0189 -0.0142 -0.0138
   8. (1.98776) BD ( 2) C  1- O  2
               ( 34.89%)   0.5907* C  1 s(  0.91%)p99.99( 98.77%)d 0.35(  0.32%)
                                         0.0000  0.0953  0.0045 -0.0693 -0.0057
                                        -0.5417  0.0229  0.8282 -0.0545  0.0150
                                        -0.0209 -0.0257 -0.0248 -0.0357
               ( 65.11%)   0.8069* O  2 s(  0.79%)p99.99( 99.04%)d 0.22(  0.17%)
                                         0.0000  0.0885  0.0045  0.0868  0.0009
                                        -0.3693 -0.0024  0.9200  0.0092 -0.0044
                                         0.0221  0.0226  0.0129  0.0229
   9. (1.99588) BD ( 1) C  1- N  3
               ( 37.19%)   0.6098* C  1 s( 32.74%)p 2.05( 67.06%)d 0.01(  0.20%)
                                         0.0000  0.5711  0.0356  0.8172  0.0490
                                        -0.0160  0.0045 -0.0074  0.0023  0.0009
                                         0.0016 -0.0051  0.0400 -0.0200
               ( 62.81%)   0.7925* N  3 s( 39.58%)p 1.52( 60.32%)d 0.00(  0.10%)
                                         0.0000  0.6291  0.0061 -0.7755 -0.0152
                                        -0.0385 -0.0009 -0.0106  0.0002  0.0026
                                         0.0015 -0.0084  0.0261 -0.0146
  10. (1.99042) BD ( 1) C  1- H  4
               ( 57.81%)   0.7603* C  1 s( 34.62%)p 1.89( 65.31%)d 0.00(  0.07%)
                                         0.0000  0.5859 -0.0540 -0.3907 -0.0030
                                         0.6335 -0.0175  0.3144 -0.0055 -0.0148
                                        -0.0095  0.0110 -0.0158 -0.0024
               ( 42.19%)   0.6496* H  4 s( 99.87%)p 0.00(  0.13%)
                                         0.9992 -0.0174  0.0158 -0.0279 -0.0161
  11. (1.97733) BD ( 1) N  3- H  5
               ( 70.24%)   0.8381* N  3 s( 29.68%)p 2.37( 70.26%)d 0.00(  0.06%)
                                         0.0000  0.5448 -0.0020  0.4216  0.0263
                                         0.5355  0.0111 -0.4870 -0.0097  0.0105
                                        -0.0079 -0.0205 -0.0051 -0.0011
               ( 29.76%)   0.5455* H  5 s( 99.76%)p 0.00(  0.24%)
                                         0.9988 -0.0038 -0.0243 -0.0317  0.0282
  12. (1.98002) BD ( 1) N  3- H  6
               ( 70.51%)   0.8397* N  3 s( 30.60%)p 2.27( 69.34%)d 0.00(  0.06%)
                                         0.0000  0.5532 -0.0016  0.4662  0.0258
                                        -0.4910 -0.0092  0.4840  0.0103 -0.0107
                                         0.0104 -0.0185 -0.0013  0.0007
               ( 29.49%)   0.5430* H  6 s( 99.76%)p 0.00(  0.24%)
                                         0.9988 -0.0048 -0.0265  0.0299 -0.0281
 ---------------- non-Lewis ----------------------------------------------------
  13. (0.04121) BD*( 1) C  1- O  2
               ( 67.04%)   0.8188* C  1 s( 32.23%)p 2.10( 67.55%)d 0.01(  0.23%)
                                         0.0000  0.5647  0.0587 -0.4083 -0.0419
                                        -0.5446 -0.0525 -0.4553 -0.0178  0.0322
                                         0.0225  0.0228 -0.0138  0.0004
               ( 32.96%)  -0.5741* O  2 s( 40.41%)p 1.47( 59.38%)d 0.01(  0.21%)
                                         0.0000  0.6354  0.0205  0.3837  0.0077
                                         0.6480  0.0126  0.1625  0.0058  0.0335
                                         0.0144  0.0189 -0.0142 -0.0138
  14. (0.07619) BD*( 2) C  1- O  2
               ( 65.11%)   0.8069* C  1 s(  0.91%)p99.99( 98.77%)d 0.35(  0.32%)
                                         0.0000  0.0953  0.0045 -0.0693 -0.0057
                                        -0.5417  0.0229  0.8282 -0.0545  0.0150
                                        -0.0209 -0.0257 -0.0248 -0.0357
               ( 34.89%)  -0.5907* O  2 s(  0.79%)p99.99( 99.04%)d 0.22(  0.17%)
                                         0.0000  0.0885  0.0045  0.0868  0.0009
                                        -0.3693 -0.0024  0.9200  0.0092 -0.0044
                                         0.0221  0.0226  0.0129  0.0229
  15. (0.05985) BD*( 1) C  1- N  3
               ( 62.81%)   0.7925* C  1 s( 32.74%)p 2.05( 67.06%)d 0.01(  0.20%)
                                         0.0000  0.5711  0.0356  0.8172  0.0490
                                        -0.0160  0.0045 -0.0074  0.0023  0.0009
                                         0.0016 -0.0051  0.0400 -0.0200
               ( 37.19%)  -0.6098* N  3 s( 39.58%)p 1.52( 60.32%)d 0.00(  0.10%)
                                         0.0000  0.6291  0.0061 -0.7755 -0.0152
                                        -0.0385 -0.0009 -0.0106  0.0002  0.0026
                                         0.0015 -0.0084  0.0261 -0.0146
  16. (0.07320) BD*( 1) C  1- H  4
               ( 42.19%)   0.6496* C  1 s( 34.62%)p 1.89( 65.31%)d 0.00(  0.07%)
                                         0.0000 -0.5859  0.0540  0.3907  0.0030
                                        -0.6335  0.0175 -0.3144  0.0055  0.0148
                                         0.0095 -0.0110  0.0158  0.0024
               ( 57.81%)  -0.7603* H  4 s( 99.87%)p 0.00(  0.13%)
                                        -0.9992  0.0174 -0.0158  0.0279  0.0161
  17. (0.00995) BD*( 1) N  3- H  5
               ( 29.76%)   0.5455* N  3 s( 29.68%)p 2.37( 70.26%)d 0.00(  0.06%)
                                         0.0000 -0.5448  0.0020 -0.4216 -0.0263
                                        -0.5355 -0.0111  0.4870  0.0097 -0.0105
                                         0.0079  0.0205  0.0051  0.0011
               ( 70.24%)  -0.8381* H  5 s( 99.76%)p 0.00(  0.24%)
                                        -0.9988  0.0038  0.0243  0.0317 -0.0282
  18. (0.01089) BD*( 1) N  3- H  6
               ( 29.49%)   0.5430* N  3 s( 30.60%)p 2.27( 69.34%)d 0.00(  0.06%)
                                         0.0000 -0.5532  0.0016 -0.4662 -0.0258
                                         0.4910  0.0092 -0.4840 -0.0103  0.0107
                                        -0.0104  0.0185  0.0013 -0.0007
               ( 70.51%)  -0.8397* H  6 s( 99.76%)p 0.00(  0.24%)
                                        -0.9988  0.0048  0.0265 -0.0299  0.0281
  19. (0.01708) RY ( 1) C  1            s( 13.43%)p 6.16( 82.73%)d 0.29(  3.84%)
                                         0.0000 -0.0320  0.3651  0.0590 -0.6462
                                         0.0542 -0.5629  0.0388 -0.2914  0.0079
                                         0.0948  0.0813 -0.1236  0.0865
  20. (0.00907) RY ( 2) C  1            s( 39.46%)p 0.31( 12.09%)d 1.23( 48.45%)
                                         0.0000 -0.0229  0.6278 -0.0606  0.3266
                                         0.0471 -0.0766  0.0328 -0.0372  0.2862
                                         0.1961 -0.2185  0.5558 -0.0864
  21. (0.00303) RY ( 3) C  1            s(  0.16%)p99.99( 25.69%)d99.99( 74.15%)
                                         0.0000 -0.0079  0.0392 -0.0166  0.2656
                                        -0.0077 -0.3570 -0.0341 -0.2396 -0.4310
                                        -0.6589 -0.2966  0.0451 -0.1779
  22. (0.00237) RY ( 4) C  1            s(  1.10%)p55.83( 61.40%)d34.10( 37.50%)
                                         0.0000  0.0032  0.1048  0.0065 -0.1967
                                         0.0479  0.5163 -0.0535 -0.5509  0.4345
                                        -0.3396 -0.1255 -0.1500 -0.1807
  23. (0.00026) RY ( 5) C  1            s( 11.34%)p 3.19( 36.13%)d 4.63( 52.52%)
                                         0.0000 -0.0148  0.3364 -0.0002  0.5448
                                         0.0186 -0.0457  0.0079 -0.2490 -0.0155
                                         0.0933  0.3816 -0.5657  0.2251
  24. (0.00000) RY ( 6) C  1            s(  0.17%)p26.32(  4.39%)d99.99( 95.44%)
  25. (0.00000) RY ( 7) C  1            s( 13.84%)p 2.12( 29.29%)d 4.11( 56.87%)
  26. (0.00000) RY ( 8) C  1            s( 18.32%)p 2.65( 48.53%)d 1.81( 33.15%)
  27. (0.00000) RY ( 9) C  1            s(  1.68%)p 0.64(  1.08%)d57.80( 97.24%)
  28. (0.00215) RY ( 1) O  2            s(  0.06%)p99.99( 98.64%)d21.39(  1.30%)
                                         0.0000 -0.0002  0.0246 -0.0058 -0.8399
                                         0.0022  0.4943  0.0022  0.1913 -0.0573
                                        -0.0397  0.0367 -0.0818  0.0077
  29. (0.00046) RY ( 2) O  2            s( 43.90%)p 1.10( 48.30%)d 0.18(  7.80%)
                                         0.0000 -0.0044  0.6626 -0.0082  0.1801
                                        -0.0117  0.4798  0.0058 -0.4692 -0.0248
                                        -0.1363 -0.1197  0.1708 -0.1236
  30. (0.00009) RY ( 3) O  2            s(  3.70%)p22.39( 82.91%)d 3.62( 13.39%)
  31. (0.00001) RY ( 4) O  2            s( 19.42%)p 1.16( 22.57%)d 2.99( 58.02%)
  32. (0.00000) RY ( 5) O  2            s( 19.84%)p 1.47( 29.13%)d 2.57( 51.03%)
  33. (0.00000) RY ( 6) O  2            s( 10.91%)p 0.20(  2.24%)d 7.96( 86.85%)
  34. (0.00000) RY ( 7) O  2            s(  1.75%)p 1.80(  3.14%)d54.38( 95.11%)
  35. (0.00000) RY ( 8) O  2            s(  0.33%)p25.61(  8.56%)d99.99( 91.11%)
  36. (0.00000) RY ( 9) O  2            s(  0.08%)p61.73(  5.02%)d99.99( 94.90%)
  37. (0.00257) RY ( 1) N  3            s(  0.32%)p99.99( 95.79%)d12.32(  3.90%)
                                         0.0000  0.0016  0.0562 -0.0011 -0.0390
                                         0.0244  0.7620  0.0279  0.6118 -0.1530
                                        -0.1137  0.0314 -0.0247 -0.0323
  38. (0.00061) RY ( 2) N  3            s( 42.98%)p 1.06( 45.55%)d 0.27( 11.46%)
                                         0.0000  0.0189  0.6553  0.0233 -0.6515
                                        -0.0027  0.0712  0.0012 -0.1595  0.1131
                                         0.1084  0.1758 -0.2422  0.0237
  39. (0.00035) RY ( 3) N  3            s(  1.46%)p24.81( 36.09%)d42.92( 62.45%)
                                         0.0000 -0.0015  0.1206  0.0013 -0.0293
                                        -0.0016 -0.3764  0.0033  0.4673  0.5024
                                        -0.5729 -0.0935 -0.1173 -0.1465
  40. (0.00005) RY ( 4) N  3            s( 42.13%)p 0.79( 33.08%)d 0.59( 24.79%)
  41. (0.00002) RY ( 5) N  3            s(  1.87%)p 4.07(  7.60%)d48.50( 90.54%)
  42. (0.00000) RY ( 6) N  3            s(  6.68%)p 0.81(  5.42%)d13.15( 87.89%)
  43. (0.00000) RY ( 7) N  3            s(  0.49%)p50.63( 24.84%)d99.99( 74.67%)
  44. (0.00000) RY ( 8) N  3            s(  2.57%)p 9.30( 23.92%)d28.58( 73.51%)
  45. (0.00000) RY ( 9) N  3            s(  1.64%)p16.99( 27.80%)d43.13( 70.57%)
  46. (0.00648) RY ( 1) H  4            s( 99.61%)p 0.00(  0.39%)
                                         0.0193  0.9979  0.0050  0.0589  0.0200
  47. (0.00012) RY ( 2) H  4            s(  0.12%)p99.99( 99.88%)
                                        -0.0066  0.0347 -0.7240 -0.3160 -0.6122
  48. (0.00006) RY ( 3) H  4            s(  0.20%)p99.99( 99.80%)
  49. (0.00004) RY ( 4) H  4            s(  0.20%)p99.99( 99.80%)
  50. (0.00169) RY ( 1) H  5            s( 91.74%)p 0.09(  8.26%)
                                         0.0149  0.9577  0.1369  0.2527  0.0031
  51. (0.00080) RY ( 2) H  5            s(  2.63%)p37.03( 97.37%)
                                         0.0032  0.1621  0.0337 -0.6236 -0.7640
  52. (0.00021) RY ( 3) H  5            s(  0.02%)p99.99( 99.98%)
                                         0.0032  0.0119 -0.8335  0.4106 -0.3694
  53. (0.00001) RY ( 4) H  5            s(  5.85%)p16.09( 94.15%)
  54. (0.00220) RY ( 1) H  6            s( 91.34%)p 0.09(  8.66%)
                                         0.0144  0.9556  0.1521 -0.2456 -0.0560
  55. (0.00074) RY ( 2) H  6            s(  3.85%)p24.99( 96.15%)
                                         0.0053  0.1961  0.0245  0.6023  0.7734
  56. (0.00019) RY ( 3) H  6            s(  0.04%)p99.99( 99.96%)
                                         0.0060  0.0185 -0.7677 -0.4957  0.4056
  57. (0.00002) RY ( 4) H  6            s(  5.01%)p18.96( 94.99%)


 NHO DIRECTIONALITY AND BOND BENDING (deviation from line of nuclear centers at
                                      the position of maximum hybrid amplitude)

         [Thresholds for printing:  angular deviation  >  1.0 degree]
                                    p- or d-character  > 25.0%
                                    orbital occupancy  >  0.10e

                        Line of Centers        Hybrid 1             Hybrid 2
                        ---------------  -------------------  ------------------
           NBO            Theta   Phi    Theta   Phi    Dev   Theta   Phi    Dev
 ===============================================================================
   4. LP ( 1) O  2          --     --    111.2  234.0   --      --     --    --
   5. LP ( 2) O  2          --     --    105.0  332.7   --      --     --    --
   6. LP ( 1) N  3          --     --     43.8   93.2   --      --     --    --
   7. BD ( 1) C  1- O  2  113.1  234.8   123.4  233.7  10.3    76.2   58.8  10.0
   8. BD ( 2) C  1- O  2  113.1  234.8    36.5  259.9  79.7    20.7  287.9  80.1
   9. BD ( 1) C  1- N  3   88.6    2.7    90.1  359.6   3.4     --     --    --
  10. BD ( 1) C  1- H  4   65.0  117.5    66.6  120.4   3.1     --     --    --
  11. BD ( 1) N  3- H  5  125.2   54.8   125.6   52.6   1.8     --     --    --
  12. BD ( 1) N  3- H  6   54.0  311.6    54.2  312.9   1.1     --     --    --


 SECOND ORDER PERTURBATION THEORY ANALYSIS OF FOCK MATRIX IN NBO BASIS

     Threshold for printing:   0.50 kcal/mol
                                                          E(2) E(NL)-E(L) F(L,NL)
      Donor (L) NBO              Acceptor (NL) NBO      kcal/mol   a.u.    a.u.
 ===============================================================================

 within unit  1
    4. LP ( 1) O  2            15. BD*( 1) C  1- N  3      0.82    1.04   0.026
    4. LP ( 1) O  2            16. BD*( 1) C  1- H  4      0.95    0.97   0.027
    4. LP ( 1) O  2            19. RY ( 1) C  1            7.66    1.10   0.082
    5. LP ( 2) O  2            15. BD*( 1) C  1- N  3     23.25    0.74   0.117
    5. LP ( 2) O  2            16. BD*( 1) C  1- H  4     21.11    0.67   0.106
    5. LP ( 2) O  2            20. RY ( 2) C  1            3.30    1.56   0.064
    5. LP ( 2) O  2            23. RY ( 5) C  1            0.86    1.49   0.032
    5. LP ( 2) O  2            33. RY ( 6) O  2            0.60    3.02   0.038
    6. LP ( 1) N  3            13. BD*( 1) C  1- O  2     15.22    0.84   0.101
    6. LP ( 1) N  3            14. BD*( 2) C  1- O  2      3.32    0.27   0.027
    6. LP ( 1) N  3            16. BD*( 1) C  1- H  4      8.49    0.65   0.067
    6. LP ( 1) N  3            21. RY ( 3) C  1            0.98    1.74   0.037
    6. LP ( 1) N  3            51. RY ( 2) H  5            1.25    1.79   0.042
    6. LP ( 1) N  3            55. RY ( 2) H  6            1.20    1.79   0.041
    7. BD ( 1) C  1- O  2      37. RY ( 1) N  3            0.58    1.72   0.028
    8. BD ( 2) C  1- O  2      17. BD*( 1) N  3- H  5      2.89    0.82   0.043
    8. BD ( 2) C  1- O  2      18. BD*( 1) N  3- H  6      1.85    0.83   0.035
    9. BD ( 1) C  1- N  3      28. RY ( 1) O  2            0.79    1.87   0.034
    9. BD ( 1) C  1- N  3      50. RY ( 1) H  5            0.50    1.29   0.023
   10. BD ( 1) C  1- H  4      18. BD*( 1) N  3- H  6      1.73    0.95   0.036
   10. BD ( 1) C  1- H  4      28. RY ( 1) O  2            1.17    1.65   0.039
   10. BD ( 1) C  1- H  4      37. RY ( 1) N  3            1.22    1.34   0.036
   11. BD ( 1) N  3- H  5      14. BD*( 2) C  1- O  2      5.99    0.64   0.055
   11. BD ( 1) N  3- H  5      22. RY ( 4) C  1            1.11    1.54   0.037
   12. BD ( 1) N  3- H  6      14. BD*( 2) C  1- O  2      4.48    0.64   0.048
   12. BD ( 1) N  3- H  6      16. BD*( 1) C  1- H  4      0.71    1.02   0.024
   12. BD ( 1) N  3- H  6      22. RY ( 4) C  1            0.80    1.54   0.031


 NATURAL BOND ORBITALS (Summary):

                                                     Principal Delocalizations
           NBO                 Occupancy    Energy   (geminal,vicinal,remote)
 ===============================================================================
 Molecular unit  1  (CH3NO)
 ------ Lewis --------------------------------------
    1. CR ( 1) C  1             1.99998   -10.29148
    2. CR ( 1) O  2             1.99999   -19.13030
    3. CR ( 1) N  3             1.99998   -14.32295
    4. LP ( 1) O  2             1.98217    -0.55517  19(v),16(v),15(v)
    5. LP ( 2) O  2             1.87318    -0.25303  15(v),16(v),20(v),23(v)
                                                     33(g)
    6. LP ( 1) N  3             1.89350    -0.24277  13(v),16(v),14(v),51(v)
                                                     55(v),21(v)
    7. BD ( 1) C  1- O  2       1.99783    -0.89044  37(v)
    8. BD ( 2) C  1- O  2       1.98776    -0.38616  17(v),18(v)
    9. BD ( 1) C  1- N  3       1.99588    -0.72784  28(v),50(v)
   10. BD ( 1) C  1- H  4       1.99042    -0.50814  18(v),37(v),28(v)
   11. BD ( 1) N  3- H  5       1.97733    -0.60744  14(v),22(v)
   12. BD ( 1) N  3- H  6       1.98002    -0.61002  14(v),22(v),16(v)
 ------ non-Lewis ----------------------------------
   13. BD*( 1) C  1- O  2       0.04121     0.60080
   14. BD*( 2) C  1- O  2       0.07619     0.02972
   15. BD*( 1) C  1- N  3       0.05985     0.48859
   16. BD*( 1) C  1- H  4       0.07320     0.41202
   17. BD*( 1) N  3- H  5       0.00995     0.43040
   18. BD*( 1) N  3- H  6       0.01089     0.43903
   19. RY ( 1) C  1             0.01708     0.54172
   20. RY ( 2) C  1             0.00907     1.30568
   21. RY ( 3) C  1             0.00303     1.49577
   22. RY ( 4) C  1             0.00237     0.92896
   23. RY ( 5) C  1             0.00026     1.23452
   24. RY ( 6) C  1             0.00000     1.62395
   25. RY ( 7) C  1             0.00000     1.28462
   26. RY ( 8) C  1             0.00000     0.99806
   27. RY ( 9) C  1             0.00000     1.38090
   28. RY ( 1) O  2             0.00215     1.14299
   29. RY ( 2) O  2             0.00046     1.67158
   30. RY ( 3) O  2             0.00009     1.22905
   31. RY ( 4) O  2             0.00001     2.45487
   32. RY ( 5) O  2             0.00000     2.19211
   33. RY ( 6) O  2             0.00000     2.76840
   34. RY ( 7) O  2             0.00000     2.66866
   35. RY ( 8) O  2             0.00000     2.75517
   36. RY ( 9) O  2             0.00000     2.57130
   37. RY ( 1) N  3             0.00257     0.83408
   38. RY ( 2) N  3             0.00061     1.46889
   39. RY ( 3) N  3             0.00035     2.04413
   40. RY ( 4) N  3             0.00005     1.39975
   41. RY ( 5) N  3             0.00002     2.02360
   42. RY ( 6) N  3             0.00000     2.13298
   43. RY ( 7) N  3             0.00000     1.77885
   44. RY ( 8) N  3             0.00000     1.77856
   45. RY ( 9) N  3             0.00000     1.75435
   46. RY ( 1) H  4             0.00648     0.34858
   47. RY ( 2) H  4             0.00012     1.71234
   48. RY ( 3) H  4             0.00006     1.69005
   49. RY ( 4) H  4             0.00004     2.01753
   50. RY ( 1) H  5             0.00169     0.56408
   51. RY ( 2) H  5             0.00080     1.54293
   52. RY ( 3) H  5             0.00021     1.72095
   53. RY ( 4) H  5             0.00001     2.11423
   54. RY ( 1) H  6             0.00220     0.54454
   55. RY ( 2) H  6             0.00074     1.54317
   56. RY ( 3) H  6             0.00019     1.72910
   57. RY ( 4) H  6             0.00002     2.13639
          -------------------------------
                 Total Lewis   23.67803  ( 98.6585%)
           Valence non-Lewis    0.27129  (  1.1304%)
           Rydberg non-Lewis    0.05068  (  0.2112%)
          -------------------------------
               Total unit  1   24.00000  (100.0000%)
              Charge unit  1    0.00000

 $CHOOSE
   LONE 2 2 3 1 END
   BOND D 1 2 S 1 3 S 1 4 S 3 5 S 3 6 END
 $END

 NBO analysis completed in 0.07 CPU seconds (0 wall seconds)
 Maximum scratch memory used by NBO was 314673 words (2.40 MB)
Stopping NBO...Storing NBOs: nbo.nbo

                                *** returned from  NBO  program ***

-------
TIMINGS
-------

Total SCF time: 0 days 0 hours 0 min 3 sec 

Total time                  ....       3.491 sec
Sum of individual times     ....       3.486 sec  ( 99.9%)

SCF preparation             ....       0.060 sec  (  1.7%)
Fock matrix formation       ....       3.291 sec  ( 94.3%)
  Startup                   ....       0.000 sec  (  0.0% of F)
  Split-RI-J                ....       0.178 sec  (  5.4% of F)
  Chain of spheres X        ....       2.070 sec  ( 62.9% of F)
  XC integration            ....       1.030 sec  ( 31.3% of F)
    XC Preparation          ....       0.000 sec  (  0.0% of XC)
    Basis function eval.    ....       0.497 sec  ( 48.3% of XC)
    Density eval.           ....       0.145 sec  ( 14.1% of XC)
    XC-Functional eval.     ....       0.158 sec  ( 15.3% of XC)
    XC-Potential eval.      ....       0.165 sec  ( 16.0% of XC)
Diagonalization             ....       0.000 sec  (  0.0%)
Density matrix formation    ....       0.010 sec  (  0.3%)
Total Energy calculation    ....       0.000 sec  (  0.0%)
Population analysis         ....       0.111 sec  (  3.2%)
Orbital Transformation      ....       0.003 sec  (  0.1%)
Orbital Orthonormalization  ....       0.000 sec  (  0.0%)
DIIS solution               ....       0.007 sec  (  0.2%)
SOSCF solution              ....       0.003 sec  (  0.1%)
Finished LeanSCF after   3.5 sec

Maximum memory used throughout the entire LEANSCF-calculation: 8.1 MB

-------------------------   --------------------
FINAL SINGLE POINT ENERGY      -169.777308520358
-------------------------   --------------------


------------------------------------------------------------------------------
                              ORCA PROPERTY CALCULATIONS
------------------------------------------------------------------------------

GBWName                                 ... nbo.gbw
Number of atoms                         ...      6
Number of basis functions               ...     75
Max core memory                         ...   1024 MB

Electric properties:
Dipole moment                           ... YES
Quadrupole moment                       ...  NO
Static polarizability (Dipole/Dipole)   ...  NO
Static polarizability (Dipole/Quad.)    ...  NO
Static polarizability (Quad./Quad.)     ...  NO
Static polarizability (Velocity)        ...  NO

Atomic electric properties:
Dipole moment                           ...  NO
Quadrupole moment                       ...  NO
Static polarizability                   ...  NO

Choice of electric origin               ... Center of mass
Position of electric origin             ...     2.374489    -0.797069    -0.281864

General magnetic properties:
Magnetizability                         ...  NO

EPR properties:
g-Tensor (aka g-matrix)                 ...  NO
Zero-Field splitting spin-orbit         ...  NO
Zero-field splitting spin-spin          ...  NO
Hyperfine couplings                     ...  NO (   0 nuclei)
Quadrupole couplings                    ...  NO (   0 nuclei)
Contact density                         ...  NO (   0 nuclei)

NMR properties:
Chemical shifts                         ...  NO (   0 nuclei)
Spin-rotation constants                 ...  NO (   0 nuclei)
Spin-spin couplings                     ...  NO (   0 nuclei,    0 pairs)

Choice of magnetic origin               ... GIAO
Position of magnetic origin             ...     0.000000     0.000000     0.000000

Properties with geometric perturbations:
SCF Hessian                             ...  NO
IR spectrum                             ...  NO
VCD spectrum                            ...  NO
X-ray spectroscopy properties:
SCF XES/XAS/RIXS spectra                ...  NO


-------------
DIPOLE MOMENT
-------------

Method             : SCF
Type of density    : Electron Density
Multiplicity       :   1
Irrep              :   0
Energy             :  -169.7773085203581047 Eh
Relativity type    : 
Basis              : AO
                                X                 Y                 Z
Electronic contribution:     -1.373494763      -1.133193164      -0.573285439
Nuclear contribution   :      2.310544426       1.805804685       0.925033584
                        -----------------------------------------
Total Dipole Moment    :      0.937049664       0.672611521       0.351748145
                        -----------------------------------------
Magnitude (a.u.)       :      1.205900115
Magnitude (Debye)      :      3.065154501



--------------------
Rotational spectrum 
--------------------
 
Rotational constants in cm-1:             2.352553             0.367291             0.334233 
Rotational constants in MHz :         70527.754133         11011.107298         10020.050259 

Dipole components along the rotational axes: 
x,y,z [a.u.] :     1.179488    -0.249100     0.030874 
x,y,z [Debye]:     2.998019    -0.633163     0.078476 

 

Dipole moment calculation done in   0.0 sec 

Maximum memory used throughout the entire PROP-calculation: 4.7 MB

--------------------------------
SUGGESTED CITATIONS FOR THIS RUN
--------------------------------

Below you find a list of papers that are relevant to this ORCA run
We neither can nor want to force you to cite these papers, but we appreciate if you do
You receive ORCA, which is the product of decades of hard work by many enthusiastic individuals, for free
The only thing we kindly ask in return is that you cite our papers,
We deeply appreciate it, if you show your appreciation for ORCA by not just citing the generic ORCA reference.

Please note that relegating all ORCA citations to the supporting information does *not* help us.
SI sections are not indexed - citations you put there will not count into any citation statistics
But we need these citations in order to attract the funding resources that allow us to do what we are doing

Therefore, if you are a happy ORCA user, please consider citing a few of the papers listed below in the main body of your paper

In addition to the list printed below, the program has created the file nbo.bibtex that contains the list in bibtex format
You can import this file easily into all common literature databanks and citation aid programs


List of essential papers. We consider these as the minimum necessary citations

  1. Neese,F.
     Software update: the ORCA program system, version 5.0
     WIRES Comput. Molec. Sci., 2022 12(1)e1606
     doi.org/10.1002/wcms.1606

List of papers to cite with high priority. The work reported in these papers was absolutely
necessary for this run to complete.
Our perspective: the developers of density functionals and basis sets usually get cited in chemistry papers
Good! But without the algorithms to do something with them, the functionals or basis sets would not do anything.
Hence, in our opinion, the algorithm design and method developments papers are equally worthy of getting cited

  1. Neese,F.
     An improvement of the resolution of the identity approximation for the formation of the Coulomb matrix
     J. Comp. Chem., 2003 24(14)1740-1747
     doi.org/10.1002/jcc.10318
  2. Neese,F.; Wennmohs,F.; Hansen,A.; Becker,U.
     Efficient, approximate and parallel Hartree-Fock and hybrid DFT calculations. A 'chain-of-spheres' algorithm for the Hartree-Fock exchange
     Chem. Phys., 2009 356(1-3)98-109
     doi.org/10.1016/j.chemphys.2008.10.036
  3. Helmich-Paris,B.; de Souza,B.; Neese,F.; Izsák,R.
     An improved chain of spheres for exchange algorithm
     J. Chem. Phys., 2021 155 104109
     doi.org/doi: 10.1063/5.0058766.
  4. Neese,F.
     The SHARK Integral Generation and Digestion System
     J. Comp. Chem., 2022  1-16
     doi.org/10.1002/jcc.26942

List of suggested additional citations. These are papers that are important in the 'surrounding' of 
of this run, or papers that preceded the highly important papers. If you like your results we are grateful for a citation.

  1. Izsak,R.; Neese,F.
     An overlap fitted chain of spheres exchange method
     J. Chem. Phys., 2011 135 144105
     doi.org/10.1063/1.3646921
  2. Izsak,R.; Hansen,A.; Neese,F.
     The resolution of identity and chain of spheres approximations for the LPNO-CCSD singles Fock term
     Molec. Phys., 2012 110 2413-2417
     doi.org/10.1080/00268976.2012.687466
  3. Neese,F.
     The ORCA program system
     WIRES Comput. Molec. Sci., 2012 2(1)73-78
     doi.org/10.1002/wcms.81
  4. Izsak,R.; Neese,F.; Klopper,W.
     Robust fitting techniques in the chain of spheres approximation to the Fock exchange: The role of the complementary space
     J. Chem. Phys., 2013 139 
     doi.org/10.1063/1.4819264
  5. Neese,F.
     Software update: the ORCA program system, version 4.0
     WIRES Comput. Molec. Sci., 2018 8(1)1-6
     doi.org/10.1002/wcms.1327
  6. Neese,F.; Wennmohs,F.; Becker,U.; Riplinger,C.
     The ORCA quantum chemistry program package
     J. Chem. Phys., 2020 152 Art. No. L224108
     doi.org/10.1063/5.0004608

List of optional additional citations

  1. Neese,F.
     Approximate second-order SCF convergence for spin unrestricted wavefunctions
     Chem. Phys. Lett., 2000 325(1-3)93-98
     doi.org/10.1016/s0009-2614(00)00662-x

Timings for individual modules:

Sum of individual times          ...        4.531 sec (=   0.076 min)
Startup calculation              ...        0.833 sec (=   0.014 min)  18.4 %
SCF iterations                   ...        3.642 sec (=   0.061 min)  80.4 %
Property calculations            ...        0.055 sec (=   0.001 min)   1.2 %
                             ****ORCA TERMINATED NORMALLY****
TOTAL RUN TIME: 0 days 0 hours 0 minutes 4 seconds 584 msec
